### Running on host: alexandro-VirtualBox

     Program PWSCF v.6.8 starts on 24Oct2021 at 14:11:54 

     This program is part of the open-source Quantum ESPRESSO suite
     for quantum simulation of materials; please cite
         "P. Giannozzi et al., J. Phys.:Condens. Matter 21 395502 (2009);
         "P. Giannozzi et al., J. Phys.:Condens. Matter 29 465901 (2017);
         "P. Giannozzi et al., J. Chem. Phys. 152 154105 (2020);
          URL http://www.quantum-espresso.org", 
     in publications or presentations arising from this work. More details at
     http://www.quantum-espresso.org/quote

     Serial version
     2557 MiB available memory on the printing compute node when the environment starts

     Reading input from value-of-a-in.2.47.in

     Current dimensions of program PWSCF are:
     Max number of different atomic species (ntypx) = 10
     Max number of k-points (npk) =  40000
     Max angular momentum in pseudopotentials (lmaxx) =  4

     --------------------------------------------
     DFT-D3 Dispersion Correction (3-body terms):
     --------------------------------------------
       Reference C6 values for interpolation: 

         atom   Coordination number   C6
         C          0.000            98.23
         C          0.987            86.49
         C          1.998            58.72
         C          2.999            51.56
         C          3.984            36.41

       Values used:

         atom   Coordination number  R0_AB[au]  C6      C8
         C          3.318            2.750     48.21   1394.41
         C          3.317            2.750     48.22   1394.67
         C          3.317            2.750     48.22   1394.67
         C          3.318            2.750     48.21   1394.41

         Molecular C6 ( Ry / a.u.^6 ) =       771.48


     G-vector sticks info
     --------------------
     sticks:   dense  smooth     PW     G-vecs:    dense   smooth      PW
     Sum         721     721    211                42413    42413    6689

     Using Slab Decomposition



     bravais-lattice index     =            4
     lattice parameter (alat)  =       4.6676  a.u.
     unit-cell volume          =     238.1758 (a.u.)^3
     number of atoms/cell      =            4
     number of atomic types    =            1
     number of electrons       =        16.00
     number of Kohn-Sham states=            8
     kinetic-energy cutoff     =     120.0000  Ry
     charge density cutoff     =     480.0000  Ry
     scf convergence threshold =      4.0E-09
     mixing beta               =       0.4000
     number of iterations used =            8  plain     mixing
     energy convergence thresh.=      2.0E-04
     force convergence thresh. =      1.0E-04
     press convergence thresh. =      5.0E-01
     Exchange-correlation= PBE
                           (   1   4   3   4   0   0   0)
     nstep                     =          300


     celldm(1)=   4.667624  celldm(2)=   0.000000  celldm(3)=   2.704453
     celldm(4)=   0.000000  celldm(5)=   0.000000  celldm(6)=   0.000000

     crystal axes: (cart. coord. in units of alat)
               a(1) = (   1.000000   0.000000   0.000000 )  
               a(2) = (  -0.500000   0.866025   0.000000 )  
               a(3) = (   0.000000   0.000000   2.704453 )  

     reciprocal axes: (cart. coord. in units 2 pi/alat)
               b(1) = (  1.000000  0.577350 -0.000000 )  
               b(2) = (  0.000000  1.154701  0.000000 )  
               b(3) = (  0.000000 -0.000000  0.369760 )  


     PseudoPot. # 1 for C  read from file:
     /home/alexandro/q-e-qe-6.8/pseudo/C.upf
     MD5 check sum: 34a24e64c0a39f27c6c36b90a16ac686
     Pseudo is Norm-conserving + core correction, Zval =  4.0
     Generated using ONCVPSP code by D. R. Hamann
     Using radial grid of 1248 points,  4 beta functions with: 
                l(1) =   0
                l(2) =   0
                l(3) =   1
                l(4) =   1

     atomic species   valence    mass     pseudopotential
        C              4.00    12.01100     C ( 1.00)

      4 Sym. Ops. (no inversion) found ( 2 have fractional translation)


                                    s                        frac. trans.

      isym =  1     identity                                     

 cryst.   s( 1) = (     1          0          0      )
                  (     0          1          0      )
                  (     0          0          1      )

 cart.    s( 1) = (  1.0000000  0.0000000  0.0000000 )
                  (  0.0000000  1.0000000  0.0000000 )
                  (  0.0000000  0.0000000  1.0000000 )


      isym =  2     180 deg rotation - cryst. axis [1,1,0]       

 cryst.   s( 2) = (     0          1          0      )    f =(  0.0000000 )
                  (     1          0          0      )       (  0.0000000 )
                  (     0          0         -1      )       (  0.5000000 )

 cart.    s( 2) = ( -0.5000000  0.8660254  0.0000000 )    f =(  0.0000000 )
                  (  0.8660254  0.5000000  0.0000000 )       (  0.0000000 )
                  (  0.0000000  0.0000000 -1.0000000 )       (  1.3522267 )


      isym =  3     inv. 180 deg rotation - cart. axis [0,0,1]   

 cryst.   s( 3) = (     1          0          0      )
                  (     0          1          0      )
                  (     0          0         -1      )

 cart.    s( 3) = (  1.0000000  0.0000000  0.0000000 )
                  (  0.0000000  1.0000000  0.0000000 )
                  (  0.0000000  0.0000000 -1.0000000 )


      isym =  4     inv. 180 deg rotation - cryst. axis [1,-1,0] 

 cryst.   s( 4) = (     0          1          0      )    f =(  0.0000000 )
                  (     1          0          0      )       (  0.0000000 )
                  (     0          0          1      )       ( -0.5000000 )

 cart.    s( 4) = ( -0.5000000  0.8660254  0.0000000 )    f =(  0.0000000 )
                  (  0.8660254  0.5000000  0.0000000 )       (  0.0000000 )
                  (  0.0000000  0.0000000  1.0000000 )       ( -1.3522267 )


     point group C_2v (mm2) 
     there are  4 classes
     the character table:

       E     C2    s_v   s_v' 
A_1    1.00  1.00  1.00  1.00
A_2    1.00  1.00 -1.00 -1.00
B_1    1.00 -1.00  1.00 -1.00
B_2    1.00 -1.00 -1.00  1.00

     the symmetry operations in each class and the name of the first element:

     E        1
          identity                                               
     C2       2
          180 deg rotation - cryst. axis [1,1,0]                 
     s_v      3
          inv. 180 deg rotation - cart. axis [0,0,1]             
     s_v'     4
          inv. 180 deg rotation - cryst. axis [1,-1,0]           

   Cartesian axes

     site n.     atom                  positions (alat units)
         1           C   tau(   1) = (   0.0000000   0.0000000   0.0000000  )
         2           C   tau(   2) = (   0.0000000   0.5767729   0.0000000  )
         3           C   tau(   3) = (   0.4995000   0.2883865   1.3522267  )
         4           C   tau(   4) = (   0.5000000   0.8660254   1.3522267  )

   Crystallographic axes

     site n.     atom                  positions (cryst. coord.)
         1           C   tau(   1) = (  0.0000000  0.0000000  0.0000000  )
         2           C   tau(   2) = (  0.3330000  0.6660000  0.0000000  )
         3           C   tau(   3) = (  0.6660000  0.3330000  0.5000000  )
         4           C   tau(   4) = (  1.0000000  1.0000000  0.5000000  )

     number of k points=   105
                       cart. coord. in units 2pi/alat
        k(    1) = (   0.0000000   0.0000000   0.0000000), wk =   0.0039062
        k(    2) = (   0.0000000   0.0000000   0.0462201), wk =   0.0078125
        k(    3) = (   0.0000000   0.0000000   0.0924401), wk =   0.0078125
        k(    4) = (   0.0000000   0.0000000   0.1386602), wk =   0.0078125
        k(    5) = (   0.0000000   0.0000000  -0.1848802), wk =   0.0039062
        k(    6) = (   0.0000000   0.1443376   0.0000000), wk =   0.0156250
        k(    7) = (   0.0000000   0.1443376   0.0462201), wk =   0.0312500
        k(    8) = (   0.0000000   0.1443376   0.0924401), wk =   0.0312500
        k(    9) = (   0.0000000   0.1443376   0.1386602), wk =   0.0312500
        k(   10) = (   0.0000000   0.1443376  -0.1848802), wk =   0.0156250
        k(   11) = (   0.0000000   0.2886751   0.0000000), wk =   0.0156250
        k(   12) = (   0.0000000   0.2886751   0.0462201), wk =   0.0312500
        k(   13) = (   0.0000000   0.2886751   0.0924401), wk =   0.0312500
        k(   14) = (   0.0000000   0.2886751   0.1386602), wk =   0.0312500
        k(   15) = (   0.0000000   0.2886751  -0.1848802), wk =   0.0156250
        k(   16) = (   0.0000000   0.4330127   0.0000000), wk =   0.0156250
        k(   17) = (   0.0000000   0.4330127   0.0462201), wk =   0.0312500
        k(   18) = (   0.0000000   0.4330127   0.0924401), wk =   0.0312500
        k(   19) = (   0.0000000   0.4330127   0.1386602), wk =   0.0312500
        k(   20) = (   0.0000000   0.4330127  -0.1848802), wk =   0.0156250
        k(   21) = (   0.0000000  -0.5773503   0.0000000), wk =   0.0078125
        k(   22) = (   0.0000000  -0.5773503   0.0462201), wk =   0.0156250
        k(   23) = (   0.0000000  -0.5773503   0.0924401), wk =   0.0156250
        k(   24) = (   0.0000000  -0.5773503   0.1386602), wk =   0.0156250
        k(   25) = (   0.0000000  -0.5773503  -0.1848802), wk =   0.0078125
        k(   26) = (   0.1250000   0.2165064   0.0000000), wk =   0.0078125
        k(   27) = (   0.1250000   0.2165064   0.0462201), wk =   0.0156250
        k(   28) = (   0.1250000   0.2165064   0.0924401), wk =   0.0156250
        k(   29) = (   0.1250000   0.2165064   0.1386602), wk =   0.0156250
        k(   30) = (   0.1250000   0.2165064  -0.1848802), wk =   0.0078125
        k(   31) = (   0.1250000   0.3608439   0.0000000), wk =   0.0156250
        k(   32) = (   0.1250000   0.3608439   0.0462201), wk =   0.0312500
        k(   33) = (   0.1250000   0.3608439   0.0924401), wk =   0.0312500
        k(   34) = (   0.1250000   0.3608439   0.1386602), wk =   0.0312500
        k(   35) = (   0.1250000   0.3608439  -0.1848802), wk =   0.0156250
        k(   36) = (   0.1250000   0.5051815   0.0000000), wk =   0.0156250
        k(   37) = (   0.1250000   0.5051815   0.0462201), wk =   0.0312500
        k(   38) = (   0.1250000   0.5051815   0.0924401), wk =   0.0312500
        k(   39) = (   0.1250000   0.5051815   0.1386602), wk =   0.0312500
        k(   40) = (   0.1250000   0.5051815  -0.1848802), wk =   0.0156250
        k(   41) = (   0.2500000   0.4330127   0.0000000), wk =   0.0078125
        k(   42) = (   0.2500000   0.4330127   0.0462201), wk =   0.0156250
        k(   43) = (   0.2500000   0.4330127   0.0924401), wk =   0.0156250
        k(   44) = (   0.2500000   0.4330127   0.1386602), wk =   0.0156250
        k(   45) = (   0.2500000   0.4330127  -0.1848802), wk =   0.0078125
        k(   46) = (   0.2500000   0.5773503   0.0000000), wk =   0.0156250
        k(   47) = (   0.2500000   0.5773503   0.0462201), wk =   0.0312500
        k(   48) = (   0.2500000   0.5773503   0.0924401), wk =   0.0312500
        k(   49) = (   0.2500000   0.5773503   0.1386602), wk =   0.0312500
        k(   50) = (   0.2500000   0.5773503  -0.1848802), wk =   0.0156250
        k(   51) = (  -0.1250000   0.0721688   0.0000000), wk =   0.0078125
        k(   52) = (  -0.1250000   0.0721688   0.0462201), wk =   0.0156250
        k(   53) = (  -0.1250000   0.0721688   0.0924401), wk =   0.0156250
        k(   54) = (  -0.1250000   0.0721688   0.1386602), wk =   0.0156250
        k(   55) = (  -0.1250000   0.0721688  -0.1848802), wk =   0.0078125
        k(   56) = (  -0.2500000   0.1443376   0.0000000), wk =   0.0078125
        k(   57) = (  -0.2500000   0.1443376   0.0462201), wk =   0.0156250
        k(   58) = (  -0.2500000   0.1443376   0.0924401), wk =   0.0156250
        k(   59) = (  -0.2500000   0.1443376   0.1386602), wk =   0.0156250
        k(   60) = (  -0.2500000   0.1443376  -0.1848802), wk =   0.0078125
        k(   61) = (  -0.3750000   0.2165064   0.0000000), wk =   0.0078125
        k(   62) = (  -0.3750000   0.2165064   0.0462201), wk =   0.0156250
        k(   63) = (  -0.3750000   0.2165064   0.0924401), wk =   0.0156250
        k(   64) = (  -0.3750000   0.2165064   0.1386602), wk =   0.0156250
        k(   65) = (  -0.3750000   0.2165064  -0.1848802), wk =   0.0078125
        k(   66) = (   0.5000000  -0.2886751   0.0000000), wk =   0.0039062
        k(   67) = (   0.5000000  -0.2886751   0.0462201), wk =   0.0078125
        k(   68) = (   0.5000000  -0.2886751   0.0924401), wk =   0.0078125
        k(   69) = (   0.5000000  -0.2886751   0.1386602), wk =   0.0078125
        k(   70) = (   0.5000000  -0.2886751  -0.1848802), wk =   0.0039062
        k(   71) = (  -0.1250000   0.2165064   0.0000000), wk =   0.0156250
        k(   72) = (  -0.1250000   0.2165064   0.0462201), wk =   0.0312500
        k(   73) = (  -0.1250000   0.2165064   0.0924401), wk =   0.0312500
        k(   74) = (  -0.1250000   0.2165064   0.1386602), wk =   0.0312500
        k(   75) = (  -0.1250000   0.2165064  -0.1848802), wk =   0.0156250
        k(   76) = (  -0.2500000   0.2886751   0.0000000), wk =   0.0156250
        k(   77) = (   0.3750000   0.0721688   0.0000000), wk =   0.0156250
        k(   78) = (  -0.2500000   0.2886751   0.0462201), wk =   0.0312500
        k(   79) = (   0.3750000   0.0721688   0.0462201), wk =   0.0312500
        k(   80) = (  -0.2500000   0.2886751   0.0924401), wk =   0.0312500
        k(   81) = (   0.3750000   0.0721688   0.0924401), wk =   0.0312500
        k(   82) = (  -0.2500000   0.2886751   0.1386602), wk =   0.0312500
        k(   83) = (   0.3750000   0.0721688   0.1386602), wk =   0.0312500
        k(   84) = (  -0.2500000   0.2886751  -0.1848802), wk =   0.0156250
        k(   85) = (   0.3750000   0.0721688  -0.1848802), wk =   0.0156250
        k(   86) = (  -0.3750000   0.3608439   0.0000000), wk =   0.0156250
        k(   87) = (   0.5000000   0.1443376   0.0000000), wk =   0.0156250
        k(   88) = (  -0.3750000   0.3608439   0.0462201), wk =   0.0312500
        k(   89) = (   0.5000000   0.1443376   0.0462201), wk =   0.0312500
        k(   90) = (  -0.3750000   0.3608439   0.0924401), wk =   0.0312500
        k(   91) = (   0.5000000   0.1443376   0.0924401), wk =   0.0312500
        k(   92) = (  -0.3750000   0.3608439   0.1386602), wk =   0.0312500
        k(   93) = (   0.5000000   0.1443376   0.1386602), wk =   0.0312500
        k(   94) = (  -0.3750000   0.3608439  -0.1848802), wk =   0.0156250
        k(   95) = (   0.5000000   0.1443376  -0.1848802), wk =   0.0156250
        k(   96) = (  -0.2500000   0.4330127   0.0000000), wk =   0.0156250
        k(   97) = (  -0.2500000   0.4330127   0.0462201), wk =   0.0312500
        k(   98) = (  -0.2500000   0.4330127   0.0924401), wk =   0.0312500
        k(   99) = (  -0.2500000   0.4330127   0.1386602), wk =   0.0312500
        k(  100) = (  -0.2500000   0.4330127  -0.1848802), wk =   0.0156250
        k(  101) = (  -0.3750000   0.5051815   0.0000000), wk =   0.0078125
        k(  102) = (  -0.3750000   0.5051815   0.0462201), wk =   0.0156250
        k(  103) = (  -0.3750000   0.5051815   0.0924401), wk =   0.0156250
        k(  104) = (  -0.3750000   0.5051815   0.1386602), wk =   0.0156250
        k(  105) = (  -0.3750000   0.5051815  -0.1848802), wk =   0.0078125

                       cryst. coord.
        k(    1) = (   0.0000000   0.0000000   0.0000000), wk =   0.0039062
        k(    2) = (   0.0000000   0.0000000   0.1250000), wk =   0.0078125
        k(    3) = (   0.0000000   0.0000000   0.2500000), wk =   0.0078125
        k(    4) = (   0.0000000   0.0000000   0.3750000), wk =   0.0078125
        k(    5) = (   0.0000000   0.0000000  -0.5000000), wk =   0.0039062
        k(    6) = (   0.0000000   0.1250000   0.0000000), wk =   0.0156250
        k(    7) = (   0.0000000   0.1250000   0.1250000), wk =   0.0312500
        k(    8) = (   0.0000000   0.1250000   0.2500000), wk =   0.0312500
        k(    9) = (   0.0000000   0.1250000   0.3750000), wk =   0.0312500
        k(   10) = (   0.0000000   0.1250000  -0.5000000), wk =   0.0156250
        k(   11) = (   0.0000000   0.2500000   0.0000000), wk =   0.0156250
        k(   12) = (   0.0000000   0.2500000   0.1250000), wk =   0.0312500
        k(   13) = (   0.0000000   0.2500000   0.2500000), wk =   0.0312500
        k(   14) = (   0.0000000   0.2500000   0.3750000), wk =   0.0312500
        k(   15) = (   0.0000000   0.2500000  -0.5000000), wk =   0.0156250
        k(   16) = (   0.0000000   0.3750000   0.0000000), wk =   0.0156250
        k(   17) = (   0.0000000   0.3750000   0.1250000), wk =   0.0312500
        k(   18) = (   0.0000000   0.3750000   0.2500000), wk =   0.0312500
        k(   19) = (   0.0000000   0.3750000   0.3750000), wk =   0.0312500
        k(   20) = (   0.0000000   0.3750000  -0.5000000), wk =   0.0156250
        k(   21) = (   0.0000000  -0.5000000   0.0000000), wk =   0.0078125
        k(   22) = (   0.0000000  -0.5000000   0.1250000), wk =   0.0156250
        k(   23) = (   0.0000000  -0.5000000   0.2500000), wk =   0.0156250
        k(   24) = (   0.0000000  -0.5000000   0.3750000), wk =   0.0156250
        k(   25) = (   0.0000000  -0.5000000  -0.5000000), wk =   0.0078125
        k(   26) = (   0.1250000   0.1250000   0.0000000), wk =   0.0078125
        k(   27) = (   0.1250000   0.1250000   0.1250000), wk =   0.0156250
        k(   28) = (   0.1250000   0.1250000   0.2500000), wk =   0.0156250
        k(   29) = (   0.1250000   0.1250000   0.3750000), wk =   0.0156250
        k(   30) = (   0.1250000   0.1250000  -0.5000000), wk =   0.0078125
        k(   31) = (   0.1250000   0.2500000   0.0000000), wk =   0.0156250
        k(   32) = (   0.1250000   0.2500000   0.1250000), wk =   0.0312500
        k(   33) = (   0.1250000   0.2500000   0.2500000), wk =   0.0312500
        k(   34) = (   0.1250000   0.2500000   0.3750000), wk =   0.0312500
        k(   35) = (   0.1250000   0.2500000  -0.5000000), wk =   0.0156250
        k(   36) = (   0.1250000   0.3750000   0.0000000), wk =   0.0156250
        k(   37) = (   0.1250000   0.3750000   0.1250000), wk =   0.0312500
        k(   38) = (   0.1250000   0.3750000   0.2500000), wk =   0.0312500
        k(   39) = (   0.1250000   0.3750000   0.3750000), wk =   0.0312500
        k(   40) = (   0.1250000   0.3750000  -0.5000000), wk =   0.0156250
        k(   41) = (   0.2500000   0.2500000   0.0000000), wk =   0.0078125
        k(   42) = (   0.2500000   0.2500000   0.1250000), wk =   0.0156250
        k(   43) = (   0.2500000   0.2500000   0.2500000), wk =   0.0156250
        k(   44) = (   0.2500000   0.2500000   0.3750000), wk =   0.0156250
        k(   45) = (   0.2500000   0.2500000  -0.5000000), wk =   0.0078125
        k(   46) = (   0.2500000   0.3750000   0.0000000), wk =   0.0156250
        k(   47) = (   0.2500000   0.3750000   0.1250000), wk =   0.0312500
        k(   48) = (   0.2500000   0.3750000   0.2500000), wk =   0.0312500
        k(   49) = (   0.2500000   0.3750000   0.3750000), wk =   0.0312500
        k(   50) = (   0.2500000   0.3750000  -0.5000000), wk =   0.0156250
        k(   51) = (  -0.1250000   0.1250000   0.0000000), wk =   0.0078125
        k(   52) = (  -0.1250000   0.1250000   0.1250000), wk =   0.0156250
        k(   53) = (  -0.1250000   0.1250000   0.2500000), wk =   0.0156250
        k(   54) = (  -0.1250000   0.1250000   0.3750000), wk =   0.0156250
        k(   55) = (  -0.1250000   0.1250000  -0.5000000), wk =   0.0078125
        k(   56) = (  -0.2500000   0.2500000   0.0000000), wk =   0.0078125
        k(   57) = (  -0.2500000   0.2500000   0.1250000), wk =   0.0156250
        k(   58) = (  -0.2500000   0.2500000   0.2500000), wk =   0.0156250
        k(   59) = (  -0.2500000   0.2500000   0.3750000), wk =   0.0156250
        k(   60) = (  -0.2500000   0.2500000  -0.5000000), wk =   0.0078125
        k(   61) = (  -0.3750000   0.3750000   0.0000000), wk =   0.0078125
        k(   62) = (  -0.3750000   0.3750000   0.1250000), wk =   0.0156250
        k(   63) = (  -0.3750000   0.3750000   0.2500000), wk =   0.0156250
        k(   64) = (  -0.3750000   0.3750000   0.3750000), wk =   0.0156250
        k(   65) = (  -0.3750000   0.3750000  -0.5000000), wk =   0.0078125
        k(   66) = (   0.5000000  -0.5000000   0.0000000), wk =   0.0039062
        k(   67) = (   0.5000000  -0.5000000   0.1250000), wk =   0.0078125
        k(   68) = (   0.5000000  -0.5000000   0.2500000), wk =   0.0078125
        k(   69) = (   0.5000000  -0.5000000   0.3750000), wk =   0.0078125
        k(   70) = (   0.5000000  -0.5000000  -0.5000000), wk =   0.0039062
        k(   71) = (  -0.1250000   0.2500000   0.0000000), wk =   0.0156250
        k(   72) = (  -0.1250000   0.2500000   0.1250000), wk =   0.0312500
        k(   73) = (  -0.1250000   0.2500000   0.2500000), wk =   0.0312500
        k(   74) = (  -0.1250000   0.2500000   0.3750000), wk =   0.0312500
        k(   75) = (  -0.1250000   0.2500000  -0.5000000), wk =   0.0156250
        k(   76) = (  -0.2500000   0.3750000   0.0000000), wk =   0.0156250
        k(   77) = (   0.3750000  -0.1250000   0.0000000), wk =   0.0156250
        k(   78) = (  -0.2500000   0.3750000   0.1250000), wk =   0.0312500
        k(   79) = (   0.3750000  -0.1250000   0.1250000), wk =   0.0312500
        k(   80) = (  -0.2500000   0.3750000   0.2500000), wk =   0.0312500
        k(   81) = (   0.3750000  -0.1250000   0.2500000), wk =   0.0312500
        k(   82) = (  -0.2500000   0.3750000   0.3750000), wk =   0.0312500
        k(   83) = (   0.3750000  -0.1250000   0.3750000), wk =   0.0312500
        k(   84) = (  -0.2500000   0.3750000  -0.5000000), wk =   0.0156250
        k(   85) = (   0.3750000  -0.1250000  -0.5000000), wk =   0.0156250
        k(   86) = (  -0.3750000   0.5000000   0.0000000), wk =   0.0156250
        k(   87) = (   0.5000000  -0.1250000   0.0000000), wk =   0.0156250
        k(   88) = (  -0.3750000   0.5000000   0.1250000), wk =   0.0312500
        k(   89) = (   0.5000000  -0.1250000   0.1250000), wk =   0.0312500
        k(   90) = (  -0.3750000   0.5000000   0.2500000), wk =   0.0312500
        k(   91) = (   0.5000000  -0.1250000   0.2500000), wk =   0.0312500
        k(   92) = (  -0.3750000   0.5000000   0.3750000), wk =   0.0312500
        k(   93) = (   0.5000000  -0.1250000   0.3750000), wk =   0.0312500
        k(   94) = (  -0.3750000   0.5000000  -0.5000000), wk =   0.0156250
        k(   95) = (   0.5000000  -0.1250000  -0.5000000), wk =   0.0156250
        k(   96) = (  -0.2500000   0.5000000   0.0000000), wk =   0.0156250
        k(   97) = (  -0.2500000   0.5000000   0.1250000), wk =   0.0312500
        k(   98) = (  -0.2500000   0.5000000   0.2500000), wk =   0.0312500
        k(   99) = (  -0.2500000   0.5000000   0.3750000), wk =   0.0312500
        k(  100) = (  -0.2500000   0.5000000  -0.5000000), wk =   0.0156250
        k(  101) = (  -0.3750000   0.6250000   0.0000000), wk =   0.0078125
        k(  102) = (  -0.3750000   0.6250000   0.1250000), wk =   0.0156250
        k(  103) = (  -0.3750000   0.6250000   0.2500000), wk =   0.0156250
        k(  104) = (  -0.3750000   0.6250000   0.3750000), wk =   0.0156250
        k(  105) = (  -0.3750000   0.6250000  -0.5000000), wk =   0.0078125

     Dense  grid:    42413 G-vectors     FFT dimensions: (  36,  36,  90)

     Dynamical RAM for                 wfc:       0.65 MB

     Dynamical RAM for     wfc (w. buffer):      68.41 MB

     Dynamical RAM for           str. fact:       0.65 MB

     Dynamical RAM for           local pot:       0.00 MB

     Dynamical RAM for          nlocal pot:       2.58 MB

     Dynamical RAM for                qrad:       1.00 MB

     Dynamical RAM for          rho,v,vnew:       4.61 MB

     Dynamical RAM for               rhoin:       1.54 MB

     Dynamical RAM for            rho*nmix:      10.35 MB

     Dynamical RAM for           G-vectors:       2.75 MB

     Dynamical RAM for          h,s,v(r/c):       0.01 MB

     Dynamical RAM for          <psi|beta>:       0.00 MB

     Dynamical RAM for                 psi:       1.29 MB

     Dynamical RAM for                hpsi:       1.29 MB

     Dynamical RAM for      wfcinit/wfcrot:       2.59 MB

     Estimated static dynamical RAM per process >      87.29 MB

     Estimated max dynamical RAM per process >     100.24 MB

     Initial potential from superposition of free atoms

     starting charge   15.99982, renormalised to   16.00000
     Starting wfcs are   16 randomized atomic wfcs

     total cpu time spent up to now is        8.6 secs

     Self-consistent Calculation

     iteration #  1     ecut=   120.00 Ry     beta= 0.40
     Davidson diagonalization with overlap

---- Real-time Memory Report at c_bands before calling an iterative solver
           112 MiB given to the printing process from OS
             0 MiB allocation reported by mallinfo(arena+hblkhd)
          2455 MiB available memory on the node where the printing process lives
------------------
     ethr =  1.00E-02,  avg # of iterations =  2.1

     total cpu time spent up to now is       21.3 secs

     total energy              =     -48.22787297 Ry
     estimated scf accuracy    <       0.33010347 Ry

     iteration #  2     ecut=   120.00 Ry     beta= 0.40
     Davidson diagonalization with overlap

---- Real-time Memory Report at c_bands before calling an iterative solver
           129 MiB given to the printing process from OS
             0 MiB allocation reported by mallinfo(arena+hblkhd)
          2439 MiB available memory on the node where the printing process lives
------------------
     ethr =  2.06E-03,  avg # of iterations =  1.1

     total cpu time spent up to now is       28.9 secs

     total energy              =     -48.19526596 Ry
     estimated scf accuracy    <       0.08458685 Ry

     iteration #  3     ecut=   120.00 Ry     beta= 0.40
     Davidson diagonalization with overlap

---- Real-time Memory Report at c_bands before calling an iterative solver
           130 MiB given to the printing process from OS
             0 MiB allocation reported by mallinfo(arena+hblkhd)
          2437 MiB available memory on the node where the printing process lives
------------------
     ethr =  5.29E-04,  avg # of iterations =  2.0

     total cpu time spent up to now is       39.5 secs

     total energy              =     -48.21420618 Ry
     estimated scf accuracy    <       0.00301905 Ry

     iteration #  4     ecut=   120.00 Ry     beta= 0.40
     Davidson diagonalization with overlap

---- Real-time Memory Report at c_bands before calling an iterative solver
           131 MiB given to the printing process from OS
             0 MiB allocation reported by mallinfo(arena+hblkhd)
          2436 MiB available memory on the node where the printing process lives
------------------
     ethr =  1.89E-05,  avg # of iterations =  3.1

     total cpu time spent up to now is       52.0 secs

     total energy              =     -48.21244625 Ry
     estimated scf accuracy    <       0.00808219 Ry

     iteration #  5     ecut=   120.00 Ry     beta= 0.40
     Davidson diagonalization with overlap

---- Real-time Memory Report at c_bands before calling an iterative solver
           133 MiB given to the printing process from OS
             0 MiB allocation reported by mallinfo(arena+hblkhd)
          2435 MiB available memory on the node where the printing process lives
------------------
     ethr =  1.89E-05,  avg # of iterations =  2.0

     total cpu time spent up to now is       62.6 secs

     total energy              =     -48.21350024 Ry
     estimated scf accuracy    <       0.00002919 Ry

     iteration #  6     ecut=   120.00 Ry     beta= 0.40
     Davidson diagonalization with overlap

---- Real-time Memory Report at c_bands before calling an iterative solver
           134 MiB given to the printing process from OS
             0 MiB allocation reported by mallinfo(arena+hblkhd)
          2433 MiB available memory on the node where the printing process lives
------------------
     ethr =  1.82E-07,  avg # of iterations =  5.0

     total cpu time spent up to now is       77.3 secs

     total energy              =     -48.21354466 Ry
     estimated scf accuracy    <       0.00000498 Ry

     iteration #  7     ecut=   120.00 Ry     beta= 0.40
     Davidson diagonalization with overlap

---- Real-time Memory Report at c_bands before calling an iterative solver
           135 MiB given to the printing process from OS
             0 MiB allocation reported by mallinfo(arena+hblkhd)
          2432 MiB available memory on the node where the printing process lives
------------------
     ethr =  3.11E-08,  avg # of iterations =  2.3

     total cpu time spent up to now is       86.9 secs

     total energy              =     -48.21354518 Ry
     estimated scf accuracy    <       0.00000065 Ry

     iteration #  8     ecut=   120.00 Ry     beta= 0.40
     Davidson diagonalization with overlap

---- Real-time Memory Report at c_bands before calling an iterative solver
           137 MiB given to the printing process from OS
             0 MiB allocation reported by mallinfo(arena+hblkhd)
          2431 MiB available memory on the node where the printing process lives
------------------
     ethr =  4.08E-09,  avg # of iterations =  5.0

     total cpu time spent up to now is      101.1 secs

     total energy              =     -48.21354568 Ry
     estimated scf accuracy    <       0.00000087 Ry

     iteration #  9     ecut=   120.00 Ry     beta= 0.40
     Davidson diagonalization with overlap

---- Real-time Memory Report at c_bands before calling an iterative solver
           138 MiB given to the printing process from OS
             0 MiB allocation reported by mallinfo(arena+hblkhd)
          2430 MiB available memory on the node where the printing process lives
------------------
     ethr =  4.08E-09,  avg # of iterations =  2.9

     total cpu time spent up to now is      110.3 secs

     total energy              =     -48.21354539 Ry
     estimated scf accuracy    <       0.00000063 Ry

     iteration # 10     ecut=   120.00 Ry     beta= 0.40
     Davidson diagonalization with overlap

---- Real-time Memory Report at c_bands before calling an iterative solver
           139 MiB given to the printing process from OS
             0 MiB allocation reported by mallinfo(arena+hblkhd)
          2428 MiB available memory on the node where the printing process lives
------------------
     ethr =  3.92E-09,  avg # of iterations =  2.1

     total cpu time spent up to now is      121.6 secs

     total energy              =     -48.21354554 Ry
     estimated scf accuracy    <          9.1E-09 Ry

     iteration # 11     ecut=   120.00 Ry     beta= 0.40
     Davidson diagonalization with overlap

---- Real-time Memory Report at c_bands before calling an iterative solver
           139 MiB given to the printing process from OS
             0 MiB allocation reported by mallinfo(arena+hblkhd)
          2428 MiB available memory on the node where the printing process lives
------------------
     ethr =  5.68E-11,  avg # of iterations =  6.5

     total cpu time spent up to now is      138.9 secs

     total energy              =     -48.21354552 Ry
     estimated scf accuracy    <       0.00000008 Ry

     iteration # 12     ecut=   120.00 Ry     beta= 0.40
     Davidson diagonalization with overlap

---- Real-time Memory Report at c_bands before calling an iterative solver
           139 MiB given to the printing process from OS
             0 MiB allocation reported by mallinfo(arena+hblkhd)
          2428 MiB available memory on the node where the printing process lives
------------------
     ethr =  5.68E-11,  avg # of iterations =  5.5

     total cpu time spent up to now is      155.3 secs

     total energy              =     -48.21354554 Ry
     estimated scf accuracy    <          4.7E-09 Ry

     iteration # 13     ecut=   120.00 Ry     beta= 0.40
     Davidson diagonalization with overlap

---- Real-time Memory Report at c_bands before calling an iterative solver
           139 MiB given to the printing process from OS
             0 MiB allocation reported by mallinfo(arena+hblkhd)
          2428 MiB available memory on the node where the printing process lives
------------------
     ethr =  2.94E-11,  avg # of iterations =  2.3

     total cpu time spent up to now is      163.8 secs

     End of self-consistent calculation

          k = 0.0000 0.0000 0.0000 (  5307 PWs)   bands (ev):

   -12.6097 -12.2986  -1.4872   0.5255   3.9646   3.9736   4.0109   4.0199

     occupation numbers 
     1.0000   1.0000   1.0000   1.0000   1.0000   1.0000   1.0000   1.0000

          k = 0.0000 0.0000 0.0462 (  5282 PWs)   bands (ev):

   -12.5986 -12.3113  -1.4228   0.4306   3.9652   3.9736   4.0110   4.0194

     occupation numbers 
     1.0000   1.0000   1.0000   1.0000   1.0000   1.0000   1.0000   1.0000

          k = 0.0000 0.0000 0.0924 (  5276 PWs)   bands (ev):

   -12.5667 -12.3470  -1.2357   0.1720   3.9666   3.9733   4.0113   4.0179

     occupation numbers 
     1.0000   1.0000   1.0000   1.0000   1.0000   1.0000   1.0000   1.0000

          k = 0.0000 0.0000 0.1387 (  5270 PWs)   bands (ev):

   -12.5182 -12.3993  -0.9444  -0.1882   3.9687   3.9724   4.0122   4.0158

     occupation numbers 
     1.0000   1.0000   1.0000   1.0000   1.0000   1.0000   1.0000   1.0000

          k = 0.0000 0.0000-0.1849 (  5288 PWs)   bands (ev):

   -12.4595 -12.4595  -0.5802  -0.5802   3.9708   3.9708   4.0137   4.0137

     occupation numbers 
     1.0000   1.0000   1.0000   1.0000   1.0000   1.0000   1.0000   1.0000

          k = 0.0000 0.1443 0.0000 (  5262 PWs)   bands (ev):

   -12.2391 -11.9350  -1.0365   0.9456   2.5780   2.6341   3.2724   3.3176

     occupation numbers 
     1.0000   1.0000   1.0000   1.0000   1.0000   1.0000   1.0000   1.0000

          k = 0.0000 0.1443 0.0462 (  5262 PWs)   bands (ev):

   -12.2282 -11.9473  -0.9730   0.8525   2.5797   2.6324   3.2735   3.3164

     occupation numbers 
     1.0000   1.0000   1.0000   1.0000   1.0000   1.0000   1.0000   1.0000

          k = 0.0000 0.1443 0.0924 (  5259 PWs)   bands (ev):

   -12.1970 -11.9821  -0.7884   0.5983   2.5844   2.6277   3.2765   3.3134

     occupation numbers 
     1.0000   1.0000   1.0000   1.0000   1.0000   1.0000   1.0000   1.0000

          k = 0.0000 0.1443 0.1387 (  5265 PWs)   bands (ev):

   -12.1495 -12.0333  -0.5012   0.2440   2.5904   2.6217   3.2800   3.3099

     occupation numbers 
     1.0000   1.0000   1.0000   1.0000   1.0000   1.0000   1.0000   1.0000

          k = 0.0000 0.1443-0.1849 (  5258 PWs)   bands (ev):

   -12.0922 -12.0921  -0.1423  -0.1420   2.5937   2.6183   3.2818   3.3081

     occupation numbers 
     1.0000   1.0000   1.0000   1.0000   1.0000   1.0000   1.0000   1.0000

          k = 0.0000 0.2887 0.0000 (  5290 PWs)   bands (ev):

   -11.1367 -10.8531  -0.4484  -0.3436   0.2908   1.9587   2.0129   2.1674

     occupation numbers 
     1.0000   1.0000   1.0000   1.0000   1.0000   1.0000   1.0000   1.0000

          k = 0.0000 0.2887 0.0462 (  5282 PWs)   bands (ev):

   -11.1265 -10.8645  -0.4446  -0.3476   0.3515   1.9605   2.0111   2.0803

     occupation numbers 
     1.0000   1.0000   1.0000   1.0000   1.0000   1.0000   1.0000   1.0000

          k = 0.0000 0.2887 0.0924 (  5284 PWs)   bands (ev):

   -11.0972 -10.8969  -0.4338  -0.3589   0.5276   1.8419   1.9654   2.0061

     occupation numbers 
     1.0000   1.0000   1.0000   1.0000   1.0000   1.0000   1.0000   1.0000

          k = 0.0000 0.2887 0.1387 (  5282 PWs)   bands (ev):

   -11.0528 -10.9444  -0.4179  -0.3753   0.8013   1.5080   1.9720   1.9994

     occupation numbers 
     1.0000   1.0000   1.0000   1.0000   1.0000   1.0000   1.0000   1.0000

          k = 0.0000 0.2887-0.1849 (  5286 PWs)   bands (ev):

   -10.9994 -10.9991  -0.4045  -0.3889   1.1416   1.1433   1.9760   1.9954

     occupation numbers 
     1.0000   1.0000   1.0000   1.0000   1.0000   1.0000   1.0000   1.0000

          k = 0.0000 0.4330 0.0000 (  5298 PWs)   bands (ev):

    -9.3400  -9.0902  -3.7452  -3.5892   0.9484   1.0070   2.3718   3.9729

     occupation numbers 
     1.0000   1.0000   1.0000   1.0000   1.0000   1.0000   1.0000   1.0000

          k = 0.0000 0.4330 0.0462 (  5292 PWs)   bands (ev):

    -9.3310  -9.1002  -3.7395  -3.5953   0.9505   1.0049   2.4255   3.9026

     occupation numbers 
     1.0000   1.0000   1.0000   1.0000   1.0000   1.0000   1.0000   1.0000

          k = 0.0000 0.4330 0.0924 (  5290 PWs)   bands (ev):

    -9.3050  -9.1285  -3.7232  -3.6126   0.9562   0.9991   2.5810   3.7074

     occupation numbers 
     1.0000   1.0000   1.0000   1.0000   1.0000   1.0000   1.0000   1.0000

          k = 0.0000 0.4330 0.1387 (  5304 PWs)   bands (ev):

    -9.2657  -9.1702  -3.6986  -3.6381   0.9643   0.9909   2.8209   3.4283

     occupation numbers 
     1.0000   1.0000   1.0000   1.0000   1.0000   1.0000   1.0000   1.0000

          k = 0.0000 0.4330-0.1849 (  5304 PWs)   bands (ev):

    -9.2186  -9.2182  -3.6740  -3.6632   0.9698   0.9854   3.1137   3.1195

     occupation numbers 
     1.0000   1.0000   1.0000   1.0000   1.0000   1.0000   1.0000   1.0000

          k = 0.0000-0.5774 0.0000 (  5302 PWs)   bands (ev):

    -7.3001  -7.1834  -6.2259  -6.1365   0.5851   0.6449   4.2478   4.9517

     occupation numbers 
     1.0000   1.0000   1.0000   1.0000   1.0000   1.0000   1.0000   1.0000

          k = 0.0000-0.5774 0.0462 (  5284 PWs)   bands (ev):

    -7.2950  -7.1869  -6.2243  -6.1412   0.5872   0.6428   4.2823   4.9374

     occupation numbers 
     1.0000   1.0000   1.0000   1.0000   1.0000   1.0000   1.0000   1.0000

          k = 0.0000-0.5774 0.0924 (  5274 PWs)   bands (ev):

    -7.2806  -7.1973  -6.2189  -6.1538   0.5932   0.6367   4.3788   4.8892

     occupation numbers 
     1.0000   1.0000   1.0000   1.0000   1.0000   1.0000   1.0000   1.0000

          k = 0.0000-0.5774 0.1387 (  5276 PWs)   bands (ev):

    -7.2599  -7.2140  -6.2093  -6.1707   0.6016   0.6282   4.5171   4.7986

     occupation numbers 
     1.0000   1.0000   1.0000   1.0000   1.0000   1.0000   1.0000   1.0000

          k = 0.0000-0.5774-0.1849 (  5304 PWs)   bands (ev):

    -7.2403  -7.2319  -6.2006  -6.1824   0.6076   0.6221   4.6601   4.6752

     occupation numbers 
     1.0000   1.0000   1.0000   1.0000   1.0000   1.0000   1.0000   1.0000

          k = 0.1250 0.2165 0.0000 (  5278 PWs)   bands (ev):

   -11.5026 -11.2123  -0.1462   0.7748   0.8205   1.7692   1.8833   1.9157

     occupation numbers 
     1.0000   1.0000   1.0000   1.0000   1.0000   1.0000   1.0000   1.0000

          k = 0.1250 0.2165 0.0462 (  5276 PWs)   bands (ev):

   -11.4922 -11.2240  -0.0846   0.7765   0.8189   1.6799   1.8844   1.9143

     occupation numbers 
     1.0000   1.0000   1.0000   1.0000   1.0000   1.0000   1.0000   1.0000

          k = 0.1250 0.2165 0.0924 (  5272 PWs)   bands (ev):

   -11.4623 -11.2572   0.0944   0.7816   0.8143   1.4358   1.8875   1.9104

     occupation numbers 
     1.0000   1.0000   1.0000   1.0000   1.0000   1.0000   1.0000   1.0000

          k = 0.1250 0.2165 0.1387 (  5267 PWs)   bands (ev):

   -11.4169 -11.3059   0.3727   0.7887   0.8074   1.0947   1.8924   1.9048

     occupation numbers 
     1.0000   1.0000   1.0000   1.0000   1.0000   1.0000   1.0000   1.0000

          k = 0.1250 0.2165-0.1849 (  5276 PWs)   bands (ev):

   -11.3620 -11.3620   0.7178   0.7178   0.8013   0.8013   1.8984   1.8984

     occupation numbers 
     1.0000   1.0000   1.0000   1.0000   1.0000   1.0000   1.0000   1.0000

          k = 0.1250 0.3608 0.0000 (  5284 PWs)   bands (ev):

   -10.0522  -9.7888  -2.0401  -1.9248   0.3425   0.4140   1.5760   3.3240

     occupation numbers 
     1.0000   1.0000   1.0000   1.0000   1.0000   1.0000   1.0000   1.0000

          k = 0.1250 0.3608 0.0462 (  5291 PWs)   bands (ev):

   -10.0427  -9.7994  -2.0358  -1.9293   0.3450   0.4113   1.6332   3.2444

     occupation numbers 
     1.0000   1.0000   1.0000   1.0000   1.0000   1.0000   1.0000   1.0000

          k = 0.1250 0.3608 0.0924 (  5289 PWs)   bands (ev):

   -10.0154  -9.8293  -2.0236  -1.9419   0.3522   0.4036   1.7992   3.0254

     occupation numbers 
     1.0000   1.0000   1.0000   1.0000   1.0000   1.0000   1.0000   1.0000

          k = 0.1250 0.3608 0.1387 (  5291 PWs)   bands (ev):

    -9.9740  -9.8733  -2.0055  -1.9604   0.3629   0.3925   2.0564   2.7164

     occupation numbers 
     1.0000   1.0000   1.0000   1.0000   1.0000   1.0000   1.0000   1.0000

          k = 0.1250 0.3608-0.1849 (  5290 PWs)   bands (ev):

    -9.9243  -9.9241  -1.9880  -1.9781   0.3715   0.3837   2.3751   2.3768

     occupation numbers 
     1.0000   1.0000   1.0000   1.0000   1.0000   1.0000   1.0000   1.0000

          k = 0.1250 0.5052 0.0000 (  5292 PWs)   bands (ev):

    -7.9711  -7.7528  -5.0535  -4.8879  -0.4345  -0.3491   3.8552   5.0801

     occupation numbers 
     1.0000   1.0000   1.0000   1.0000   1.0000   1.0000   1.0000   1.0000

          k = 0.1250 0.5052 0.0462 (  5292 PWs)   bands (ev):

    -7.9632  -7.7615  -5.0475  -4.8944  -0.4314  -0.3524   3.9005   5.0340

     occupation numbers 
     1.0000   1.0000   1.0000   1.0000   1.0000   1.0000   1.0000   1.0000

          k = 0.1250 0.5052 0.0924 (  5301 PWs)   bands (ev):

    -7.9403  -7.7860  -5.0304  -4.9130  -0.4226  -0.3616   4.0305   4.9012

     occupation numbers 
     1.0000   1.0000   1.0000   1.0000   1.0000   1.0000   1.0000   1.0000

          k = 0.1250 0.5052 0.1387 (  5299 PWs)   bands (ev):

    -7.9057  -7.8222  -5.0045  -4.9403  -0.4097  -0.3749   4.2274   4.7003

     occupation numbers 
     1.0000   1.0000   1.0000   1.0000   1.0000   1.0000   1.0000   1.0000

          k = 0.1250 0.5052-0.1849 (  5294 PWs)   bands (ev):

    -7.8649  -7.8637  -4.9782  -4.9672  -0.3988  -0.3859   4.4583   4.4675

     occupation numbers 
     1.0000   1.0000   1.0000   1.0000   1.0000   1.0000   1.0000   1.0000

          k = 0.2500 0.4330 0.0000 (  5284 PWs)   bands (ev):

    -8.3020  -8.0727  -3.5441  -3.4644  -1.9309  -1.8721   3.5967   5.0738

     occupation numbers 
     1.0000   1.0000   1.0000   1.0000   1.0000   1.0000   1.0000   1.0000

          k = 0.2500 0.4330 0.0462 (  5296 PWs)   bands (ev):

    -8.2937  -8.0819  -3.5409  -3.4673  -1.9292  -1.8748   3.6468   5.0097

     occupation numbers 
     1.0000   1.0000   1.0000   1.0000   1.0000   1.0000   1.0000   1.0000

          k = 0.2500 0.4330 0.0924 (  5295 PWs)   bands (ev):

    -8.2698  -8.1077  -3.5319  -3.4755  -1.9240  -1.8823   3.7917   4.8316

     occupation numbers 
     1.0000   1.0000   1.0000   1.0000   1.0000   1.0000   1.0000   1.0000

          k = 0.2500 0.4330 0.1387 (  5303 PWs)   bands (ev):

    -8.2335  -8.1459  -3.5185  -3.4880  -1.9157  -1.8931   4.0147   4.5758

     occupation numbers 
     1.0000   1.0000   1.0000   1.0000   1.0000   1.0000   1.0000   1.0000

          k = 0.2500 0.4330-0.1849 (  5286 PWs)   bands (ev):

    -8.1901  -8.1901  -3.5031  -3.5031  -1.9049  -1.9049   4.2885   4.2885

     occupation numbers 
     1.0000   1.0000   1.0000   1.0000   1.0000   1.0000   1.0000   1.0000

          k = 0.2500 0.5774 0.0000 (  5272 PWs)   bands (ev):

    -6.3496  -6.2430  -5.4294  -5.3808  -2.7425  -2.6363   5.5757   6.2406

     occupation numbers 
     1.0000   1.0000   1.0000   1.0000   1.0000   1.0000   1.0000   1.0000

          k = 0.2500 0.5774 0.0462 (  5274 PWs)   bands (ev):

    -6.3449  -6.2461  -5.4292  -5.3835  -2.7388  -2.6407   5.6112   6.2321

     occupation numbers 
     1.0000   1.0000   1.0000   1.0000   1.0000   1.0000   1.0000   1.0000

          k = 0.2500 0.5774 0.0924 (  5287 PWs)   bands (ev):

    -6.3317  -6.2555  -5.4280  -5.3904  -2.7283  -2.6528   5.7106   6.1987

     occupation numbers 
     1.0000   1.0000   1.0000   1.0000   1.0000   1.0000   1.0000   1.0000

          k = 0.2500 0.5774 0.1387 (  5296 PWs)   bands (ev):

    -6.3128  -6.2706  -5.4254  -5.3988  -2.7123  -2.6703   5.8519   6.1238

     occupation numbers 
     1.0000   1.0000   1.0000   1.0000   1.0000   1.0000   1.0000   1.0000

          k = 0.2500 0.5774-0.1849 (  5296 PWs)   bands (ev):

    -6.2959  -6.2859  -5.4233  -5.4032  -2.6972  -2.6860   5.9942   6.0090

     occupation numbers 
     1.0000   1.0000   1.0000   1.0000   1.0000   1.0000   1.0000   1.0000

          k =-0.1250 0.0722 0.0000 (  5262 PWs)   bands (ev):

   -12.2390 -11.9349  -1.0367   0.9454   2.5931   2.6436   3.2635   3.3002

     occupation numbers 
     1.0000   1.0000   1.0000   1.0000   1.0000   1.0000   1.0000   1.0000

          k =-0.1250 0.0722 0.0462 (  5262 PWs)   bands (ev):

   -12.2282 -11.9473  -0.9731   0.8523   2.5951   2.6417   3.2649   3.2988

     occupation numbers 
     1.0000   1.0000   1.0000   1.0000   1.0000   1.0000   1.0000   1.0000

          k =-0.1250 0.0722 0.0924 (  5259 PWs)   bands (ev):

   -12.1969 -11.9821  -0.7886   0.5981   2.6005   2.6362   3.2688   3.2948

     occupation numbers 
     1.0000   1.0000   1.0000   1.0000   1.0000   1.0000   1.0000   1.0000

          k =-0.1250 0.0722 0.1387 (  5265 PWs)   bands (ev):

   -12.1494 -12.0332  -0.5013   0.2438   2.6087   2.6280   3.2748   3.2888

     occupation numbers 
     1.0000   1.0000   1.0000   1.0000   1.0000   1.0000   1.0000   1.0000

          k =-0.1250 0.0722-0.1849 (  5258 PWs)   bands (ev):

   -12.0921 -12.0921  -0.1423  -0.1423   2.6183   2.6183   3.2818   3.2818

     occupation numbers 
     1.0000   1.0000   1.0000   1.0000   1.0000   1.0000   1.0000   1.0000

          k =-0.2500 0.1443 0.0000 (  5290 PWs)   bands (ev):

   -11.1365 -10.8529  -0.4401  -0.3363   0.2901   1.9508   2.0013   2.1663

     occupation numbers 
     1.0000   1.0000   1.0000   1.0000   1.0000   1.0000   1.0000   1.0000

          k =-0.2500 0.1443 0.0462 (  5282 PWs)   bands (ev):

   -11.1263 -10.8643  -0.4362  -0.3403   0.3508   1.9528   1.9994   2.0793

     occupation numbers 
     1.0000   1.0000   1.0000   1.0000   1.0000   1.0000   1.0000   1.0000

          k =-0.2500 0.1443 0.0924 (  5284 PWs)   bands (ev):

   -11.0971 -10.8967  -0.4252  -0.3519   0.5269   1.8410   1.9582   1.9939

     occupation numbers 
     1.0000   1.0000   1.0000   1.0000   1.0000   1.0000   1.0000   1.0000

          k =-0.2500 0.1443 0.1387 (  5282 PWs)   bands (ev):

   -11.0526 -10.9442  -0.4086  -0.3689   0.8005   1.5071   1.9663   1.9857

     occupation numbers 
     1.0000   1.0000   1.0000   1.0000   1.0000   1.0000   1.0000   1.0000

          k =-0.2500 0.1443-0.1849 (  5286 PWs)   bands (ev):

   -10.9991 -10.9991  -0.3889  -0.3889   1.1416   1.1416   1.9760   1.9760

     occupation numbers 
     1.0000   1.0000   1.0000   1.0000   1.0000   1.0000   1.0000   1.0000

          k =-0.3750 0.2165 0.0000 (  5298 PWs)   bands (ev):

    -9.3398  -9.0900  -3.7396  -3.5839   0.9417   0.9981   2.3694   3.9693

     occupation numbers 
     1.0000   1.0000   1.0000   1.0000   1.0000   1.0000   1.0000   1.0000

          k =-0.3750 0.2165 0.0462 (  5292 PWs)   bands (ev):

    -9.3308  -9.1000  -3.7339  -3.5900   0.9438   0.9959   2.4231   3.8990

     occupation numbers 
     1.0000   1.0000   1.0000   1.0000   1.0000   1.0000   1.0000   1.0000

          k =-0.3750 0.2165 0.0924 (  5290 PWs)   bands (ev):

    -9.3048  -9.1283  -3.7175  -3.6074   0.9499   0.9898   2.5785   3.7040

     occupation numbers 
     1.0000   1.0000   1.0000   1.0000   1.0000   1.0000   1.0000   1.0000

          k =-0.3750 0.2165 0.1387 (  5304 PWs)   bands (ev):

    -9.2655  -9.1700  -3.6927  -3.6332   0.9590   0.9806   2.8183   3.4252

     occupation numbers 
     1.0000   1.0000   1.0000   1.0000   1.0000   1.0000   1.0000   1.0000

          k =-0.3750 0.2165-0.1849 (  5304 PWs)   bands (ev):

    -9.2182  -9.2182  -3.6632  -3.6632   0.9698   0.9698   3.1137   3.1137

     occupation numbers 
     1.0000   1.0000   1.0000   1.0000   1.0000   1.0000   1.0000   1.0000

          k = 0.5000-0.2887 0.0000 (  5302 PWs)   bands (ev):

    -7.3042  -7.1875  -6.2162  -6.1283   0.5788   0.6368   4.2401   4.9456

     occupation numbers 
     1.0000   1.0000   1.0000   1.0000   1.0000   1.0000   1.0000   1.0000

          k = 0.5000-0.2887 0.0462 (  5284 PWs)   bands (ev):

    -7.2990  -7.1910  -6.2145  -6.1330   0.5810   0.6346   4.2746   4.9311

     occupation numbers 
     1.0000   1.0000   1.0000   1.0000   1.0000   1.0000   1.0000   1.0000

          k = 0.5000-0.2887 0.0924 (  5274 PWs)   bands (ev):

    -7.2846  -7.2015  -6.2087  -6.1460   0.5872   0.6282   4.3711   4.8825

     occupation numbers 
     1.0000   1.0000   1.0000   1.0000   1.0000   1.0000   1.0000   1.0000

          k = 0.5000-0.2887 0.1387 (  5276 PWs)   bands (ev):

    -7.2637  -7.2185  -6.1980  -6.1638   0.5966   0.6188   4.5096   4.7912

     occupation numbers 
     1.0000   1.0000   1.0000   1.0000   1.0000   1.0000   1.0000   1.0000

          k = 0.5000-0.2887-0.1849 (  5304 PWs)   bands (ev):

    -7.2403  -7.2403  -6.1824  -6.1824   0.6077   0.6077   4.6601   4.6601

     occupation numbers 
     1.0000   1.0000   1.0000   1.0000   1.0000   1.0000   1.0000   1.0000

          k =-0.1250 0.2165 0.0000 (  5278 PWs)   bands (ev):

   -11.5025 -11.2121  -0.1467   0.7836   0.8349   1.7685   1.8664   1.9074

     occupation numbers 
     1.0000   1.0000   1.0000   1.0000   1.0000   1.0000   1.0000   1.0000

          k =-0.1250 0.2165 0.0462 (  5276 PWs)   bands (ev):

   -11.4921 -11.2239  -0.0850   0.7852   0.8335   1.6792   1.8672   1.9063

     occupation numbers 
     1.0000   1.0000   1.0000   1.0000   1.0000   1.0000   1.0000   1.0000

          k =-0.1250 0.2165 0.0924 (  5272 PWs)   bands (ev):

   -11.4622 -11.2570   0.0940   0.7895   0.8296   1.4352   1.8693   1.9034

     occupation numbers 
     1.0000   1.0000   1.0000   1.0000   1.0000   1.0000   1.0000   1.0000

          k =-0.1250 0.2165 0.1387 (  5267 PWs)   bands (ev):

   -11.4167 -11.3057   0.3722   0.7947   0.8246   1.0942   1.8719   1.9000

     occupation numbers 
     1.0000   1.0000   1.0000   1.0000   1.0000   1.0000   1.0000   1.0000

          k =-0.1250 0.2165-0.1849 (  5276 PWs)   bands (ev):

   -11.3620 -11.3618   0.7167   0.7184   0.8013   0.8240   1.8732   1.8985

     occupation numbers 
     1.0000   1.0000   1.0000   1.0000   1.0000   1.0000   1.0000   1.0000

          k =-0.2500 0.2887 0.0000 (  5284 PWs)   bands (ev):

   -10.0519  -9.7885  -2.0320  -1.9168   0.3331   0.4040   1.5745   3.3218

     occupation numbers 
     1.0000   1.0000   1.0000   1.0000   1.0000   1.0000   1.0000   1.0000

          k = 0.3750 0.0722 0.0000 (  5284 PWs)   bands (ev):

   -10.0520  -9.7886  -2.0375  -1.9213   0.3379   0.4113   1.5752   3.3229

     occupation numbers 
     1.0000   1.0000   1.0000   1.0000   1.0000   1.0000   1.0000   1.0000

          k =-0.2500 0.2887 0.0462 (  5291 PWs)   bands (ev):

   -10.0424  -9.7991  -2.0277  -1.9213   0.3356   0.4012   1.6317   3.2422

     occupation numbers 
     1.0000   1.0000   1.0000   1.0000   1.0000   1.0000   1.0000   1.0000

          k = 0.3750 0.0722 0.0462 (  5291 PWs)   bands (ev):

   -10.0425  -9.7992  -2.0332  -1.9257   0.3404   0.4086   1.6324   3.2433

     occupation numbers 
     1.0000   1.0000   1.0000   1.0000   1.0000   1.0000   1.0000   1.0000

          k =-0.2500 0.2887 0.0924 (  5289 PWs)   bands (ev):

   -10.0151  -9.8290  -2.0155  -1.9339   0.3430   0.3934   1.7976   3.0233

     occupation numbers 
     1.0000   1.0000   1.0000   1.0000   1.0000   1.0000   1.0000   1.0000

          k = 0.3750 0.0722 0.0924 (  5289 PWs)   bands (ev):

   -10.0152  -9.8291  -2.0211  -1.9382   0.3474   0.4011   1.7983   3.0243

     occupation numbers 
     1.0000   1.0000   1.0000   1.0000   1.0000   1.0000   1.0000   1.0000

          k =-0.2500 0.2887 0.1387 (  5291 PWs)   bands (ev):

    -9.9737  -9.8730  -1.9971  -1.9527   0.3540   0.3819   2.0548   2.7145

     occupation numbers 
     1.0000   1.0000   1.0000   1.0000   1.0000   1.0000   1.0000   1.0000

          k = 0.3750 0.0722 0.1387 (  5291 PWs)   bands (ev):

    -9.9738  -9.8731  -2.0033  -1.9564   0.3574   0.3907   2.0556   2.7155

     occupation numbers 
     1.0000   1.0000   1.0000   1.0000   1.0000   1.0000   1.0000   1.0000

          k =-0.2500 0.2887-0.1849 (  5290 PWs)   bands (ev):

    -9.9241  -9.9237  -1.9781  -1.9719   0.3642   0.3715   2.3732   2.3751

     occupation numbers 
     1.0000   1.0000   1.0000   1.0000   1.0000   1.0000   1.0000   1.0000

          k = 0.3750 0.0722-0.1849 (  5290 PWs)   bands (ev):

    -9.9243  -9.9237  -1.9880  -1.9719   0.3642   0.3837   2.3732   2.3768

     occupation numbers 
     1.0000   1.0000   1.0000   1.0000   1.0000   1.0000   1.0000   1.0000

          k =-0.3750 0.3608 0.0000 (  5292 PWs)   bands (ev):

    -7.9716  -7.7534  -5.0473  -4.8821  -0.4411  -0.3567   3.8503   5.0737

     occupation numbers 
     1.0000   1.0000   1.0000   1.0000   1.0000   1.0000   1.0000   1.0000

          k = 0.5000 0.1443 0.0000 (  5292 PWs)   bands (ev):

    -7.9710  -7.7527  -5.0531  -4.8873  -0.4354  -0.3497   3.8542   5.0792

     occupation numbers 
     1.0000   1.0000   1.0000   1.0000   1.0000   1.0000   1.0000   1.0000

          k =-0.3750 0.3608 0.0462 (  5292 PWs)   bands (ev):

    -7.9636  -7.7620  -5.0413  -4.8887  -0.4380  -0.3600   3.8956   5.0277

     occupation numbers 
     1.0000   1.0000   1.0000   1.0000   1.0000   1.0000   1.0000   1.0000

          k = 0.5000 0.1443 0.0462 (  5292 PWs)   bands (ev):

    -7.9631  -7.7614  -5.0471  -4.8939  -0.4323  -0.3529   3.8995   5.0331

     occupation numbers 
     1.0000   1.0000   1.0000   1.0000   1.0000   1.0000   1.0000   1.0000

          k =-0.3750 0.3608 0.0924 (  5301 PWs)   bands (ev):

    -7.9407  -7.7865  -5.0241  -4.9073  -0.4290  -0.3693   4.0255   4.8951

     occupation numbers 
     1.0000   1.0000   1.0000   1.0000   1.0000   1.0000   1.0000   1.0000

          k = 0.5000 0.1443 0.0924 (  5301 PWs)   bands (ev):

    -7.9402  -7.7859  -5.0300  -4.9124  -0.4235  -0.3620   4.0295   4.9003

     occupation numbers 
     1.0000   1.0000   1.0000   1.0000   1.0000   1.0000   1.0000   1.0000

          k =-0.3750 0.3608 0.1387 (  5299 PWs)   bands (ev):

    -7.9062  -7.8227  -4.9981  -4.9349  -0.4155  -0.3832   4.2222   4.6945

     occupation numbers 
     1.0000   1.0000   1.0000   1.0000   1.0000   1.0000   1.0000   1.0000

          k = 0.5000 0.1443 0.1387 (  5299 PWs)   bands (ev):

    -7.9056  -7.8221  -5.0041  -4.9397  -0.4106  -0.3753   4.2264   4.6994

     occupation numbers 
     1.0000   1.0000   1.0000   1.0000   1.0000   1.0000   1.0000   1.0000

          k =-0.3750 0.3608-0.1849 (  5294 PWs)   bands (ev):

    -7.8649  -7.8647  -4.9672  -4.9663  -0.4001  -0.3988   4.4563   4.4584

     occupation numbers 
     1.0000   1.0000   1.0000   1.0000   1.0000   1.0000   1.0000   1.0000

          k = 0.5000 0.1443-0.1849 (  5294 PWs)   bands (ev):

    -7.8647  -7.8637  -4.9782  -4.9663  -0.4001  -0.3859   4.4563   4.4675

     occupation numbers 
     1.0000   1.0000   1.0000   1.0000   1.0000   1.0000   1.0000   1.0000

          k =-0.2500 0.4330 0.0000 (  5284 PWs)   bands (ev):

    -8.3018  -8.0726  -3.5374  -3.4565  -1.9399  -1.8791   3.5941   5.0702

     occupation numbers 
     1.0000   1.0000   1.0000   1.0000   1.0000   1.0000   1.0000   1.0000

          k =-0.2500 0.4330 0.0462 (  5296 PWs)   bands (ev):

    -8.2935  -8.0818  -3.5342  -3.4593  -1.9383  -1.8818   3.6443   5.0063

     occupation numbers 
     1.0000   1.0000   1.0000   1.0000   1.0000   1.0000   1.0000   1.0000

          k =-0.2500 0.4330 0.0924 (  5295 PWs)   bands (ev):

    -8.2696  -8.1076  -3.5254  -3.4673  -1.9335  -1.8890   3.7890   4.8283

     occupation numbers 
     1.0000   1.0000   1.0000   1.0000   1.0000   1.0000   1.0000   1.0000

          k =-0.2500 0.4330 0.1387 (  5303 PWs)   bands (ev):

    -8.2334  -8.1458  -3.5128  -3.4790  -1.9263  -1.8986   4.0119   4.5727

     occupation numbers 
     1.0000   1.0000   1.0000   1.0000   1.0000   1.0000   1.0000   1.0000

          k =-0.2500 0.4330-0.1849 (  5286 PWs)   bands (ev):

    -8.1901  -8.1899  -3.5031  -3.4884  -1.9210  -1.9048   4.2826   4.2885

     occupation numbers 
     1.0000   1.0000   1.0000   1.0000   1.0000   1.0000   1.0000   1.0000

          k =-0.3750 0.5052 0.0000 (  5272 PWs)   bands (ev):

    -6.3543  -6.2479  -5.4175  -5.3730  -2.7476  -2.6423   5.5686   6.2353

     occupation numbers 
     1.0000   1.0000   1.0000   1.0000   1.0000   1.0000   1.0000   1.0000

          k =-0.3750 0.5052 0.0462 (  5274 PWs)   bands (ev):

    -6.3496  -6.2511  -5.4171  -5.3758  -2.7440  -2.6466   5.6041   6.2266

     occupation numbers 
     1.0000   1.0000   1.0000   1.0000   1.0000   1.0000   1.0000   1.0000

          k =-0.3750 0.5052 0.0924 (  5287 PWs)   bands (ev):

    -6.3364  -6.2606  -5.4153  -5.3833  -2.7333  -2.6588   5.7034   6.1925

     occupation numbers 
     1.0000   1.0000   1.0000   1.0000   1.0000   1.0000   1.0000   1.0000

          k =-0.3750 0.5052 0.1387 (  5296 PWs)   bands (ev):

    -6.3172  -6.2761  -5.4109  -5.3933  -2.7170  -2.6767   5.8446   6.1168

     occupation numbers 
     1.0000   1.0000   1.0000   1.0000   1.0000   1.0000   1.0000   1.0000

          k =-0.3750 0.5052-0.1849 (  5296 PWs)   bands (ev):

    -6.2959  -6.2959  -5.4033  -5.4033  -2.6972  -2.6972   5.9943   5.9943

     occupation numbers 
     1.0000   1.0000   1.0000   1.0000   1.0000   1.0000   1.0000   1.0000

     highest occupied level (ev):     6.2406

!    total energy              =     -48.21354554 Ry
     estimated scf accuracy    <          2.9E-10 Ry

     The total energy is the sum of the following terms:
     one-electron contribution =     -10.20834687 Ry
     hartree contribution      =      13.25935356 Ry
     xc contribution           =     -17.15797542 Ry
     ewald contribution        =     -34.08097267 Ry
     DFT-D3 Dispersion         =      -0.02560414 Ry

     convergence has been achieved in  13 iterations

     Forces acting on atoms (cartesian axes, Ry/au):

     atom    1 type  1   force =    -0.00001494   -0.00304500   -0.00000000
     atom    2 type  1   force =     0.00001600    0.00304439    0.00000000
     atom    3 type  1   force =     0.00262852    0.00153605    0.00000000
     atom    4 type  1   force =    -0.00262957   -0.00153544    0.00000000
     The non-local contrib.  to forces
     atom    1 type  1   force =    -0.00000410   -0.00200549    0.00000000
     atom    2 type  1   force =     0.00000358    0.00200932    0.00000000
     atom    3 type  1   force =     0.00173834    0.00100776    0.00000000
     atom    4 type  1   force =    -0.00173476   -0.00100629    0.00000000
     The ionic contribution  to forces
     atom    1 type  1   force =    -0.00000636   -0.00984322   -0.00000000
     atom    2 type  1   force =    -0.00000636    0.00985057   -0.00000000
     atom    3 type  1   force =     0.00853402    0.00491978    0.00000000
     atom    4 type  1   force =    -0.00852130   -0.00492712    0.00000000
     The local contribution  to forces
     atom    1 type  1   force =    -0.00000459    0.00862295   -0.00000000
     atom    2 type  1   force =     0.00001877   -0.00863450   -0.00000000
     atom    3 type  1   force =    -0.00748708   -0.00430099    0.00000000
     atom    4 type  1   force =     0.00746999    0.00430750    0.00000000
     The core correction contribution to forces
     atom    1 type  1   force =     0.00000000    0.00017845    0.00000000
     atom    2 type  1   force =     0.00000002   -0.00017877    0.00000000
     atom    3 type  1   force =    -0.00015483   -0.00008937   -0.00000000
     atom    4 type  1   force =     0.00015455    0.00008923   -0.00000000
     The Hubbard contrib.    to forces
     atom    1 type  1   force =     0.00000000    0.00000000    0.00000000
     atom    2 type  1   force =     0.00000000    0.00000000    0.00000000
     atom    3 type  1   force =     0.00000000    0.00000000    0.00000000
     atom    4 type  1   force =     0.00000000    0.00000000    0.00000000
     The SCF correction term to forces
     atom    1 type  1   force =     0.00000005   -0.00000004   -0.00000000
     atom    2 type  1   force =    -0.00000007    0.00000004   -0.00000000
     atom    3 type  1   force =     0.00000007   -0.00000004    0.00000000
     atom    4 type  1   force =    -0.00000006    0.00000003    0.00000000

     DFT-D3 dispersion contribution to forces:
     atom    1 type  1   force =     0.00000002    0.00000230    0.00000000
     atom    2 type  1   force =     0.00000002   -0.00000232    0.00000000
     atom    3 type  1   force =    -0.00000202   -0.00000114   -0.00000000
     atom    4 type  1   force =     0.00000198    0.00000117    0.00000000

     Total force =     0.006089     Total SCF correction =     0.000000

     DFT-D3 dispersion Force =     0.000005


     Computing stress (Cartesian axis) and pressure

          total   stress  (Ry/bohr**3)                   (kbar)     P=      -11.08
  -0.00016463   0.00000465  -0.00000000          -24.22        0.68       -0.00
   0.00000465  -0.00015926   0.00000000            0.68      -23.43        0.00
   0.00000000   0.00000000   0.00009803            0.00        0.00       14.42

     kinetic stress (kbar)  13337.05     -1.55      0.00
                               -1.55  13335.26      0.00
                                0.00      0.00  14767.86

     local   stress (kbar) -19423.65    -11.51      0.00
                              -11.51 -19436.94     -0.00
                                0.00     -0.00  23400.04

     nonloc. stress (kbar)  -1350.15     -0.18      0.00
                               -0.18  -1350.36     -0.00
                               -0.00      0.00  -1142.54

     hartree stress (kbar)   7164.27      1.66     -0.00
                                1.66   7166.19      0.00
                               -0.00      0.00  -6141.05

     exc-cor stress (kbar)  -1059.97      0.07     -0.00
                                0.07  -1059.89      0.00
                               -0.00      0.00  -1176.69

     corecor stress (kbar)  -2011.70     -0.06     -0.00
                               -0.06  -2011.77     -0.00
                               -0.00     -0.00  -1964.64

     ewald   stress (kbar)   3322.15     12.26     -0.00
                               12.26   3336.31     -0.00
                               -0.00     -0.00 -27707.97

     hubbard stress (kbar)      0.00      0.00      0.00
                                0.00      0.00      0.00
                                0.00      0.00      0.00

     DFT-D   stress (kbar)     -2.22     -0.00      0.00
                               -0.00     -2.23     -0.00
                                0.00     -0.00    -20.58

     XDM     stress (kbar)      0.00      0.00      0.00
                                0.00      0.00      0.00
                                0.00      0.00      0.00

     dft-nl  stress (kbar)      0.00      0.00      0.00
                                0.00      0.00      0.00
                                0.00      0.00      0.00

     TS-vdW  stress (kbar)      0.00      0.00      0.00
                                0.00      0.00      0.00
                                0.00      0.00      0.00


                                0.00      0.00      0.00
                                0.00      0.00      0.00


                                0.00      0.00      0.00


     BFGS Geometry Optimization
     Energy error            =      0.0E+00 Ry
     Gradient error          =      3.0E-03 Ry/Bohr
     Cell gradient error     =      2.4E+01 kbar

     number of scf cycles    =   1
     number of bfgs steps    =   0

     enthalpy           new  =     -48.2135455361 Ry

     new trust radius        =       0.0127086582 bohr
     new conv_thr            =       0.0000000040 Ry

     new unit-cell volume =    236.83008 a.u.^3 (    35.09460 Ang^3 )
     density =      2.27325 g/cm^3

CELL_PARAMETERS (alat=  4.66762353)
   0.995884260   0.000116190   0.000000000
  -0.497841506   0.862519164   0.000000000
  -0.000000000   0.000000000   2.711081263

ATOMIC_POSITIONS (crystal)
C            -0.0003798454       -0.0007532875       -0.0000000000
C             0.3333799957        0.6667531372        0.0000000000
C             0.6667531372        0.3333799957        0.5000000000
C             0.9992467125        0.9996201546        0.5000000000



     Writing output data file ./c.save/
     NEW-OLD atomic charge density approx. for the potential
     extrapolated charge   15.90909, renormalised to   16.00000

     total cpu time spent up to now is      180.3 secs

     Self-consistent Calculation

     iteration #  1     ecut=   120.00 Ry     beta= 0.40
     Davidson diagonalization with overlap

---- Real-time Memory Report at c_bands before calling an iterative solver
           140 MiB given to the printing process from OS
             0 MiB allocation reported by mallinfo(arena+hblkhd)
          2453 MiB available memory on the node where the printing process lives
------------------
     ethr =  1.00E-06,  avg # of iterations =  4.6

     total cpu time spent up to now is      198.1 secs

     total energy              =     -48.21317526 Ry
     estimated scf accuracy    <       0.00034629 Ry

     iteration #  2     ecut=   120.00 Ry     beta= 0.40
     Davidson diagonalization with overlap

---- Real-time Memory Report at c_bands before calling an iterative solver
           140 MiB given to the printing process from OS
             0 MiB allocation reported by mallinfo(arena+hblkhd)
          2437 MiB available memory on the node where the printing process lives
------------------
     ethr =  2.16E-06,  avg # of iterations =  3.0

     total cpu time spent up to now is      209.8 secs

     total energy              =     -48.21356991 Ry
     estimated scf accuracy    <       0.00003207 Ry

     iteration #  3     ecut=   120.00 Ry     beta= 0.40
     Davidson diagonalization with overlap

---- Real-time Memory Report at c_bands before calling an iterative solver
           140 MiB given to the printing process from OS
             0 MiB allocation reported by mallinfo(arena+hblkhd)
          2436 MiB available memory on the node where the printing process lives
------------------
     ethr =  2.00E-07,  avg # of iterations =  1.5

     total cpu time spent up to now is      217.6 secs

     total energy              =     -48.21356480 Ry
     estimated scf accuracy    <       0.00001340 Ry

     iteration #  4     ecut=   120.00 Ry     beta= 0.40
     Davidson diagonalization with overlap

---- Real-time Memory Report at c_bands before calling an iterative solver
           140 MiB given to the printing process from OS
             0 MiB allocation reported by mallinfo(arena+hblkhd)
          2434 MiB available memory on the node where the printing process lives
------------------
     ethr =  8.37E-08,  avg # of iterations =  2.1

     total cpu time spent up to now is      228.1 secs

     total energy              =     -48.21356734 Ry
     estimated scf accuracy    <       0.00000011 Ry

     iteration #  5     ecut=   120.00 Ry     beta= 0.40
     Davidson diagonalization with overlap

---- Real-time Memory Report at c_bands before calling an iterative solver
           140 MiB given to the printing process from OS
             0 MiB allocation reported by mallinfo(arena+hblkhd)
          2433 MiB available memory on the node where the printing process lives
------------------
     ethr =  6.88E-10,  avg # of iterations =  5.7

     total cpu time spent up to now is      243.3 secs

     total energy              =     -48.21356741 Ry
     estimated scf accuracy    <       0.00000028 Ry

     iteration #  6     ecut=   120.00 Ry     beta= 0.40
     Davidson diagonalization with overlap

---- Real-time Memory Report at c_bands before calling an iterative solver
           140 MiB given to the printing process from OS
             0 MiB allocation reported by mallinfo(arena+hblkhd)
          2432 MiB available memory on the node where the printing process lives
------------------
     ethr =  6.88E-10,  avg # of iterations =  3.8

     total cpu time spent up to now is      255.8 secs

     total energy              =     -48.21356748 Ry
     estimated scf accuracy    <       0.00000003 Ry

     iteration #  7     ecut=   120.00 Ry     beta= 0.40
     Davidson diagonalization with overlap

---- Real-time Memory Report at c_bands before calling an iterative solver
           140 MiB given to the printing process from OS
             0 MiB allocation reported by mallinfo(arena+hblkhd)
          2430 MiB available memory on the node where the printing process lives
------------------
     ethr =  1.97E-10,  avg # of iterations =  2.0

     total cpu time spent up to now is      265.1 secs

     total energy              =     -48.21356746 Ry
     estimated scf accuracy    <       0.00000005 Ry

     iteration #  8     ecut=   120.00 Ry     beta= 0.40
     Davidson diagonalization with overlap

---- Real-time Memory Report at c_bands before calling an iterative solver
           140 MiB given to the printing process from OS
             0 MiB allocation reported by mallinfo(arena+hblkhd)
          2429 MiB available memory on the node where the printing process lives
------------------
     ethr =  1.97E-10,  avg # of iterations =  3.7

     total cpu time spent up to now is      277.6 secs

     total energy              =     -48.21356747 Ry
     estimated scf accuracy    <          4.1E-09 Ry

     iteration #  9     ecut=   120.00 Ry     beta= 0.40
     Davidson diagonalization with overlap

---- Real-time Memory Report at c_bands before calling an iterative solver
           141 MiB given to the printing process from OS
             0 MiB allocation reported by mallinfo(arena+hblkhd)
          2428 MiB available memory on the node where the printing process lives
------------------
     ethr =  2.55E-11,  avg # of iterations =  2.9

     total cpu time spent up to now is      286.5 secs

     End of self-consistent calculation

          k = 0.0000 0.0000 0.0000 (  5307 PWs)   bands (ev):

   -12.6395 -12.3360  -1.4907   0.4888   4.0289   4.0373   4.0853   4.0938

     occupation numbers 
     1.0000   1.0000   1.0000   1.0000   1.0000   1.0000   1.0000   1.0000

          k = 0.0000 0.0000 0.0461 (  5282 PWs)   bands (ev):

   -12.6287 -12.3483  -1.4272   0.3958   4.0294   4.0372   4.0854   4.0933

     occupation numbers 
     1.0000   1.0000   1.0000   1.0000   1.0000   1.0000   1.0000   1.0000

          k = 0.0000 0.0000 0.0922 (  5276 PWs)   bands (ev):

   -12.5975 -12.3831  -1.2430   0.1419   4.0307   4.0368   4.0859   4.0920

     occupation numbers 
     1.0000   1.0000   1.0000   1.0000   1.0000   1.0000   1.0000   1.0000

          k = 0.0000 0.0000 0.1383 (  5270 PWs)   bands (ev):

   -12.5501 -12.4341  -0.9561  -0.2121   4.0325   4.0358   4.0868   4.0902

     occupation numbers 
     1.0000   1.0000   1.0000   1.0000   1.0000   1.0000   1.0000   1.0000

          k = 0.0000 0.0000-0.1844 (  5288 PWs)   bands (ev):

   -12.4928 -12.4928  -0.5977  -0.5977   4.0344   4.0344   4.0883   4.0883

     occupation numbers 
     1.0000   1.0000   1.0000   1.0000   1.0000   1.0000   1.0000   1.0000

          k =-0.0000 0.1449-0.0000 (  5262 PWs)   bands (ev):

   -12.2663 -11.9696  -1.0360   0.9136   2.6478   2.7063   3.3211   3.3705

     occupation numbers 
     1.0000   1.0000   1.0000   1.0000   1.0000   1.0000   1.0000   1.0000

          k =-0.0000 0.1449 0.0461 (  5262 PWs)   bands (ev):

   -12.2557 -11.9817  -0.9734   0.8222   2.6494   2.7047   3.3220   3.3695

     occupation numbers 
     1.0000   1.0000   1.0000   1.0000   1.0000   1.0000   1.0000   1.0000

          k =-0.0000 0.1449 0.0922 (  5259 PWs)   bands (ev):

   -12.2252 -12.0156  -0.7916   0.5726   2.6534   2.7007   3.3244   3.3671

     occupation numbers 
     1.0000   1.0000   1.0000   1.0000   1.0000   1.0000   1.0000   1.0000

          k =-0.0000 0.1449 0.1383 (  5265 PWs)   bands (ev):

   -12.1788 -12.0654  -0.5088   0.2244   2.6583   2.6957   3.3272   3.3644

     occupation numbers 
     1.0000   1.0000   1.0000   1.0000   1.0000   1.0000   1.0000   1.0000

          k =-0.0000 0.1449-0.1844 (  5258 PWs)   bands (ev):

   -12.1229 -12.1227  -0.1556  -0.1552   2.6607   2.6933   3.3284   3.3631

     occupation numbers 
     1.0000   1.0000   1.0000   1.0000   1.0000   1.0000   1.0000   1.0000

          k =-0.0000 0.2898-0.0000 (  5290 PWs)   bands (ev):

   -11.1561 -10.8797  -0.3981  -0.2959   0.3032   1.9973   2.0517   2.1490

     occupation numbers 
     1.0000   1.0000   1.0000   1.0000   1.0000   1.0000   1.0000   1.0000

          k =-0.0000 0.2898 0.0461 (  5282 PWs)   bands (ev):

   -11.1461 -10.8908  -0.3944  -0.2997   0.3630   1.9989   2.0501   2.0636

     occupation numbers 
     1.0000   1.0000   1.0000   1.0000   1.0000   1.0000   1.0000   1.0000

          k =-0.0000 0.2898 0.0922 (  5284 PWs)   bands (ev):

   -11.1176 -10.9223  -0.3841  -0.3105   0.5364   1.8295   2.0032   2.0456

     occupation numbers 
     1.0000   1.0000   1.0000   1.0000   1.0000   1.0000   1.0000   1.0000

          k =-0.0000 0.2898 0.1383 (  5282 PWs)   bands (ev):

   -11.0742 -10.9686  -0.3692  -0.3259   0.8059   1.5013   2.0088   2.0400

     occupation numbers 
     1.0000   1.0000   1.0000   1.0000   1.0000   1.0000   1.0000   1.0000

          k =-0.0000 0.2898-0.1844 (  5286 PWs)   bands (ev):

   -11.0223 -11.0218  -0.3577  -0.3376   1.1406   1.1427   2.0119   2.0369

     occupation numbers 
     1.0000   1.0000   1.0000   1.0000   1.0000   1.0000   1.0000   1.0000

          k =-0.0001 0.4347-0.0000 (  5298 PWs)   bands (ev):

    -9.3460  -9.1027  -3.7189  -3.5673   0.9784   1.0360   2.4024   3.9774

     occupation numbers 
     1.0000   1.0000   1.0000   1.0000   1.0000   1.0000   1.0000   1.0000

          k =-0.0001 0.4347 0.0461 (  5292 PWs)   bands (ev):

    -9.3372  -9.1125  -3.7134  -3.5732   0.9803   1.0340   2.4553   3.9083

     occupation numbers 
     1.0000   1.0000   1.0000   1.0000   1.0000   1.0000   1.0000   1.0000

          k =-0.0001 0.4347 0.0922 (  5290 PWs)   bands (ev):

    -9.3119  -9.1400  -3.6976  -3.5900   0.9856   1.0287   2.6083   3.7164

     occupation numbers 
     1.0000   1.0000   1.0000   1.0000   1.0000   1.0000   1.0000   1.0000

          k =-0.0001 0.4347 0.1383 (  5304 PWs)   bands (ev):

    -9.2736  -9.1806  -3.6739  -3.6145   0.9927   1.0215   2.8444   3.4420

     occupation numbers 
     1.0000   1.0000   1.0000   1.0000   1.0000   1.0000   1.0000   1.0000

          k =-0.0001 0.4347-0.1844 (  5304 PWs)   bands (ev):

    -9.2278  -9.2272  -3.6513  -3.6376   0.9970   1.0171   3.1317   3.1390

     occupation numbers 
     1.0000   1.0000   1.0000   1.0000   1.0000   1.0000   1.0000   1.0000

          k = 0.0001-0.5797 0.0000 (  5302 PWs)   bands (ev):

    -7.2810  -7.1674  -6.2322  -6.1441   0.6119   0.6705   4.2916   4.9832

     occupation numbers 
     1.0000   1.0000   1.0000   1.0000   1.0000   1.0000   1.0000   1.0000

          k = 0.0001-0.5797 0.0461 (  5284 PWs)   bands (ev):

    -7.2760  -7.1707  -6.2306  -6.1485   0.6139   0.6685   4.3252   4.9686

     occupation numbers 
     1.0000   1.0000   1.0000   1.0000   1.0000   1.0000   1.0000   1.0000

          k = 0.0001-0.5797 0.0922 (  5274 PWs)   bands (ev):

    -7.2620  -7.1808  -6.2255  -6.1606   0.6194   0.6629   4.4194   4.9203

     occupation numbers 
     1.0000   1.0000   1.0000   1.0000   1.0000   1.0000   1.0000   1.0000

          k = 0.0001-0.5797 0.1383 (  5276 PWs)   bands (ev):

    -7.2420  -7.1970  -6.2167  -6.1765   0.6270   0.6552   4.5544   4.8306

     occupation numbers 
     1.0000   1.0000   1.0000   1.0000   1.0000   1.0000   1.0000   1.0000

          k = 0.0001-0.5797-0.1844 (  5304 PWs)   bands (ev):

    -7.2239  -7.2135  -6.2094  -6.1866   0.6318   0.6504   4.6922   4.7115

     occupation numbers 
     1.0000   1.0000   1.0000   1.0000   1.0000   1.0000   1.0000   1.0000

          k = 0.1255 0.2174-0.0000 (  5278 PWs)   bands (ev):

   -11.5247 -11.2416  -0.1382   0.8484   0.8924   1.7457   1.9080   1.9391

     occupation numbers 
     1.0000   1.0000   1.0000   1.0000   1.0000   1.0000   1.0000   1.0000

          k = 0.1255 0.2174 0.0461 (  5276 PWs)   bands (ev):

   -11.5145 -11.2530  -0.0775   0.8501   0.8908   1.6580   1.9091   1.9377

     occupation numbers 
     1.0000   1.0000   1.0000   1.0000   1.0000   1.0000   1.0000   1.0000

          k = 0.1255 0.2174 0.0922 (  5272 PWs)   bands (ev):

   -11.4854 -11.2853   0.0988   0.8549   0.8864   1.4184   1.9121   1.9340

     occupation numbers 
     1.0000   1.0000   1.0000   1.0000   1.0000   1.0000   1.0000   1.0000

          k = 0.1255 0.2174 0.1383 (  5267 PWs)   bands (ev):

   -11.4410 -11.3328   0.3728   0.8615   0.8797   1.0834   1.9167   1.9286

     occupation numbers 
     1.0000   1.0000   1.0000   1.0000   1.0000   1.0000   1.0000   1.0000

          k = 0.1255 0.2174-0.1844 (  5276 PWs)   bands (ev):

   -11.3875 -11.3875   0.7139   0.7139   0.8724   0.8724   1.9225   1.9225

     occupation numbers 
     1.0000   1.0000   1.0000   1.0000   1.0000   1.0000   1.0000   1.0000

          k = 0.1255 0.3623-0.0000 (  5284 PWs)   bands (ev):

   -10.0639  -9.8073  -1.9938  -1.8813   0.3629   0.4331   1.5989   3.3181

     occupation numbers 
     1.0000   1.0000   1.0000   1.0000   1.0000   1.0000   1.0000   1.0000

          k = 0.1255 0.3623 0.0461 (  5291 PWs)   bands (ev):

   -10.0546  -9.8176  -1.9897  -1.8856   0.3653   0.4305   1.6552   3.2399

     occupation numbers 
     1.0000   1.0000   1.0000   1.0000   1.0000   1.0000   1.0000   1.0000

          k = 0.1255 0.3623 0.0922 (  5289 PWs)   bands (ev):

   -10.0280  -9.8467  -1.9779  -1.8978   0.3722   0.4232   1.8186   3.0248

     occupation numbers 
     1.0000   1.0000   1.0000   1.0000   1.0000   1.0000   1.0000   1.0000

          k = 0.1255 0.3623 0.1383 (  5291 PWs)   bands (ev):

    -9.9877  -9.8896  -1.9604  -1.9157   0.3822   0.4128   2.0718   2.7212

     occupation numbers 
     1.0000   1.0000   1.0000   1.0000   1.0000   1.0000   1.0000   1.0000

          k = 0.1255 0.3623-0.1844 (  5290 PWs)   bands (ev):

    -9.9393  -9.9390  -1.9446  -1.9317   0.3895   0.4053   2.3851   2.3874

     occupation numbers 
     1.0000   1.0000   1.0000   1.0000   1.0000   1.0000   1.0000   1.0000

          k = 0.1255 0.5072-0.0000 (  5292 PWs)   bands (ev):

    -7.9659  -7.7532  -5.0362  -4.8745  -0.4143  -0.3312   3.8968   5.1020

     occupation numbers 
     1.0000   1.0000   1.0000   1.0000   1.0000   1.0000   1.0000   1.0000

          k = 0.1255 0.5072 0.0461 (  5292 PWs)   bands (ev):

    -7.9581  -7.7616  -5.0303  -4.8809  -0.4113  -0.3343   3.9413   5.0565

     occupation numbers 
     1.0000   1.0000   1.0000   1.0000   1.0000   1.0000   1.0000   1.0000

          k = 0.1255 0.5072 0.0922 (  5301 PWs)   bands (ev):

    -7.9358  -7.7854  -5.0136  -4.8989  -0.4029  -0.3430   4.0689   4.9254

     occupation numbers 
     1.0000   1.0000   1.0000   1.0000   1.0000   1.0000   1.0000   1.0000

          k = 0.1255 0.5072 0.1383 (  5299 PWs)   bands (ev):

[...]

          k =-0.3757 0.2169-0.0000 (  5502 PWs)   bands (ev):

    -9.7856  -9.6125  -4.1901  -4.0847   0.4898   0.5258   2.0619   3.3224

     occupation numbers 
     1.0000   1.0000   1.0000   1.0000   1.0000   1.0000   1.0000   1.0000

          k =-0.3757 0.2169 0.0442 (  5525 PWs)   bands (ev):

    -9.7793  -9.6193  -4.1862  -4.0888   0.4912   0.5244   2.1046   3.2677

     occupation numbers 
     1.0000   1.0000   1.0000   1.0000   1.0000   1.0000   1.0000   1.0000

          k =-0.3757 0.2169 0.0884 (  5526 PWs)   bands (ev):

    -9.7611  -9.6387  -4.1750  -4.1005   0.4951   0.5205   2.2281   3.1158

     occupation numbers 
     1.0000   1.0000   1.0000   1.0000   1.0000   1.0000   1.0000   1.0000

          k =-0.3757 0.2169 0.1326 (  5528 PWs)   bands (ev):

    -9.7336  -9.6673  -4.1581  -4.1178   0.5009   0.5146   2.4184   2.8974

     occupation numbers 
     1.0000   1.0000   1.0000   1.0000   1.0000   1.0000   1.0000   1.0000

          k =-0.3757 0.2169-0.1768 (  5516 PWs)   bands (ev):

    -9.7007  -9.7007  -4.1381  -4.1381   0.5077   0.5077   2.6521   2.6521

     occupation numbers 
     1.0000   1.0000   1.0000   1.0000   1.0000   1.0000   1.0000   1.0000

          k = 0.5009-0.2892 0.0000 (  5478 PWs)   bands (ev):

    -7.7499  -7.6698  -6.6994  -6.6384   0.1251   0.1622   3.8957   4.4471

     occupation numbers 
     1.0000   1.0000   1.0000   1.0000   1.0000   1.0000   1.0000   1.0000

          k = 0.5009-0.2892 0.0442 (  5510 PWs)   bands (ev):

    -7.7465  -7.6724  -6.6979  -6.6414   0.1265   0.1607   3.9213   4.4330

     occupation numbers 
     1.0000   1.0000   1.0000   1.0000   1.0000   1.0000   1.0000   1.0000

          k = 0.5009-0.2892 0.0884 (  5512 PWs)   bands (ev):

    -7.7370  -7.6801  -6.6930  -6.6497   0.1305   0.1567   3.9929   4.3888

     occupation numbers 
     1.0000   1.0000   1.0000   1.0000   1.0000   1.0000   1.0000   1.0000

          k = 0.5009-0.2892 0.1326 (  5526 PWs)   bands (ev):

    -7.7230  -7.6922  -6.6849  -6.6613   0.1365   0.1507   4.0961   4.3127

     occupation numbers 
     1.0000   1.0000   1.0000   1.0000   1.0000   1.0000   1.0000   1.0000

          k = 0.5009-0.2892-0.1768 (  5520 PWs)   bands (ev):

    -7.7072  -7.7072  -6.6738  -6.6738   0.1436   0.1436   4.2099   4.2099

     occupation numbers 
     1.0000   1.0000   1.0000   1.0000   1.0000   1.0000   1.0000   1.0000

          k =-0.1252 0.2169-0.0000 (  5488 PWs)   bands (ev):

   -11.9498 -11.7469  -0.4486   0.3331   0.3628   1.0656   1.4171   1.4379

     occupation numbers 
     1.0000   1.0000   1.0000   1.0000   1.0000   1.0000   1.0000   1.0000

          k =-0.1252 0.2169 0.0442 (  5491 PWs)   bands (ev):

   -11.9424 -11.7550  -0.3991   0.3342   0.3617   0.9968   1.4178   1.4371

     occupation numbers 
     1.0000   1.0000   1.0000   1.0000   1.0000   1.0000   1.0000   1.0000

          k =-0.1252 0.2169 0.0884 (  5489 PWs)   bands (ev):

   -11.9212 -11.7779  -0.2555   0.3374   0.3586   0.8074   1.4199   1.4346

     occupation numbers 
     1.0000   1.0000   1.0000   1.0000   1.0000   1.0000   1.0000   1.0000

          k =-0.1252 0.2169 0.1326 (  5493 PWs)   bands (ev):

   -11.8891 -11.8116  -0.0328   0.3420   0.3541   0.5401   1.4231   1.4311

     occupation numbers 
     1.0000   1.0000   1.0000   1.0000   1.0000   1.0000   1.0000   1.0000

          k =-0.1252 0.2169-0.1768 (  5490 PWs)   bands (ev):

   -11.8507 -11.8507   0.2434   0.2434   0.3492   0.3493   1.4270   1.4271

     occupation numbers 
     1.0000   1.0000   1.0000   1.0000   1.0000   1.0000   1.0000   1.0000

          k =-0.2504 0.2892-0.0000 (  5521 PWs)   bands (ev):

   -10.4983 -10.3153  -2.4827  -2.4057  -0.1183  -0.0720   1.2710   2.6485

     occupation numbers 
     1.0000   1.0000   1.0000   1.0000   1.0000   1.0000   1.0000   1.0000

          k = 0.3757 0.0723 0.0000 (  5521 PWs)   bands (ev):

   -10.4983 -10.3153  -2.4826  -2.4056  -0.1184  -0.0721   1.2710   2.6484

     occupation numbers 
     1.0000   1.0000   1.0000   1.0000   1.0000   1.0000   1.0000   1.0000

          k =-0.2504 0.2892 0.0442 (  5519 PWs)   bands (ev):

   -10.4916 -10.3225  -2.4798  -2.4087  -0.1166  -0.0738   1.3167   2.5871

     occupation numbers 
     1.0000   1.0000   1.0000   1.0000   1.0000   1.0000   1.0000   1.0000

          k = 0.3757 0.0723 0.0442 (  5519 PWs)   bands (ev):

   -10.4916 -10.3225  -2.4798  -2.4086  -0.1167  -0.0739   1.3167   2.5871

     occupation numbers 
     1.0000   1.0000   1.0000   1.0000   1.0000   1.0000   1.0000   1.0000

          k =-0.2504 0.2892 0.0884 (  5508 PWs)   bands (ev):

   -10.4724 -10.3430  -2.4716  -2.4171  -0.1117  -0.0789   1.4492   2.4174

     occupation numbers 
     1.0000   1.0000   1.0000   1.0000   1.0000   1.0000   1.0000   1.0000

          k = 0.3757 0.0723 0.0884 (  5508 PWs)   bands (ev):

   -10.4724 -10.3431  -2.4715  -2.4170  -0.1118  -0.0791   1.4492   2.4173

     occupation numbers 
     1.0000   1.0000   1.0000   1.0000   1.0000   1.0000   1.0000   1.0000

          k =-0.2504 0.2892 0.1326 (  5504 PWs)   bands (ev):

   -10.4434 -10.3734  -2.4592  -2.4297  -0.1043  -0.0866   1.6541   2.1759

     occupation numbers 
     1.0000   1.0000   1.0000   1.0000   1.0000   1.0000   1.0000   1.0000

          k = 0.3757 0.0723 0.1326 (  5504 PWs)   bands (ev):

   -10.4434 -10.3734  -2.4591  -2.4296  -0.1044  -0.0867   1.6541   2.1759

     occupation numbers 
     1.0000   1.0000   1.0000   1.0000   1.0000   1.0000   1.0000   1.0000

          k =-0.2504 0.2892-0.1768 (  5502 PWs)   bands (ev):

   -10.4087 -10.4087  -2.4445  -2.4445  -0.0955  -0.0954   1.9075   1.9075

     occupation numbers 
     1.0000   1.0000   1.0000   1.0000   1.0000   1.0000   1.0000   1.0000

          k = 0.3757 0.0723-0.1768 (  5502 PWs)   bands (ev):

   -10.4087 -10.4087  -2.4444  -2.4444  -0.0956  -0.0955   1.9075   1.9075

     occupation numbers 
     1.0000   1.0000   1.0000   1.0000   1.0000   1.0000   1.0000   1.0000

          k =-0.3757 0.3615-0.0000 (  5520 PWs)   bands (ev):

    -8.4158  -8.2652  -5.5015  -5.3887  -0.8934  -0.8379   3.5297   4.4937

     occupation numbers 
     1.0000   1.0000   1.0000   1.0000   1.0000   1.0000   1.0000   1.0000

          k = 0.5009 0.1446 0.0000 (  5520 PWs)   bands (ev):

    -8.4158  -8.2653  -5.5014  -5.3886  -0.8935  -0.8380   3.5298   4.4932

     occupation numbers 
     1.0000   1.0000   1.0000   1.0000   1.0000   1.0000   1.0000   1.0000

          k =-0.3757 0.3615 0.0442 (  5513 PWs)   bands (ev):

    -8.4102  -8.2711  -5.4974  -5.3931  -0.8914  -0.8401   3.5651   4.4563

     occupation numbers 
     1.0000   1.0000   1.0000   1.0000   1.0000   1.0000   1.0000   1.0000

          k = 0.5009 0.1446 0.0442 (  5513 PWs)   bands (ev):

    -8.4103  -8.2712  -5.4972  -5.3930  -0.8915  -0.8402   3.5651   4.4559

     occupation numbers 
     1.0000   1.0000   1.0000   1.0000   1.0000   1.0000   1.0000   1.0000

          k =-0.3757 0.3615 0.0884 (  5517 PWs)   bands (ev):

    -8.3943  -8.2878  -5.4855  -5.4057  -0.8854  -0.8462   3.6665   4.3499

     occupation numbers 
     1.0000   1.0000   1.0000   1.0000   1.0000   1.0000   1.0000   1.0000

          k = 0.5009 0.1446 0.0884 (  5517 PWs)   bands (ev):

    -8.3943  -8.2879  -5.4853  -5.4056  -0.8855  -0.8463   3.6665   4.3495

     occupation numbers 
     1.0000   1.0000   1.0000   1.0000   1.0000   1.0000   1.0000   1.0000

          k =-0.3757 0.3615 0.1326 (  5518 PWs)   bands (ev):

    -8.3703  -8.3127  -5.4675  -5.4243  -0.8765  -0.8553   3.8202   4.1907

     occupation numbers 
     1.0000   1.0000   1.0000   1.0000   1.0000   1.0000   1.0000   1.0000

          k = 0.5009 0.1446 0.1326 (  5518 PWs)   bands (ev):

    -8.3703  -8.3127  -5.4674  -5.4242  -0.8766  -0.8554   3.8201   4.1904

     occupation numbers 
     1.0000   1.0000   1.0000   1.0000   1.0000   1.0000   1.0000   1.0000

          k =-0.3757 0.3615-0.1768 (  5532 PWs)   bands (ev):

    -8.3416  -8.3416  -5.4461  -5.4461  -0.8659  -0.8659   4.0042   4.0042

     occupation numbers 
     1.0000   1.0000   1.0000   1.0000   1.0000   1.0000   1.0000   1.0000

          k = 0.5009 0.1446-0.1768 (  5532 PWs)   bands (ev):

    -8.3417  -8.3417  -5.4459  -5.4459  -0.8660  -0.8660   4.0040   4.0041

     occupation numbers 
     1.0000   1.0000   1.0000   1.0000   1.0000   1.0000   1.0000   1.0000

          k =-0.2504 0.4338-0.0000 (  5510 PWs)   bands (ev):

    -8.7469  -8.5887  -3.9902  -3.9370  -2.4081  -2.3686   3.2832   4.4417

     occupation numbers 
     1.0000   1.0000   1.0000   1.0000   1.0000   1.0000   1.0000   1.0000

          k =-0.2504 0.4338 0.0442 (  5519 PWs)   bands (ev):

    -8.7411  -8.5949  -3.9881  -3.9389  -2.4069  -2.3703   3.3229   4.3921

     occupation numbers 
     1.0000   1.0000   1.0000   1.0000   1.0000   1.0000   1.0000   1.0000

          k =-0.2504 0.4338 0.0884 (  5519 PWs)   bands (ev):

    -8.7244  -8.6126  -3.9822  -3.9445  -2.4031  -2.3751   3.4374   4.2537

     occupation numbers 
     1.0000   1.0000   1.0000   1.0000   1.0000   1.0000   1.0000   1.0000

          k =-0.2504 0.4338 0.1326 (  5527 PWs)   bands (ev):

    -8.6992  -8.6387  -3.9734  -3.9530  -2.3973  -2.3821   3.6134   4.0542

     occupation numbers 
     1.0000   1.0000   1.0000   1.0000   1.0000   1.0000   1.0000   1.0000

          k =-0.2504 0.4338-0.1768 (  5528 PWs)   bands (ev):

    -8.6692  -8.6692  -3.9631  -3.9631  -2.3899  -2.3899   3.8290   3.8290

     occupation numbers 
     1.0000   1.0000   1.0000   1.0000   1.0000   1.0000   1.0000   1.0000

          k =-0.3757 0.5061-0.0000 (  5484 PWs)   bands (ev):

    -6.7999  -6.7273  -5.8981  -5.8663  -3.2093  -3.1379   5.2350   5.7585

     occupation numbers 
     1.0000   1.0000   1.0000   1.0000   1.0000   1.0000   1.0000   1.0000

          k =-0.3757 0.5061 0.0442 (  5498 PWs)   bands (ev):

    -6.7968  -6.7297  -5.8975  -5.8681  -3.2068  -3.1407   5.2612   5.7481

     occupation numbers 
     1.0000   1.0000   1.0000   1.0000   1.0000   1.0000   1.0000   1.0000

          k =-0.3757 0.5061 0.0884 (  5513 PWs)   bands (ev):

    -6.7881  -6.7366  -5.8954  -5.8728  -3.1994  -3.1488   5.3342   5.7132

     occupation numbers 
     1.0000   1.0000   1.0000   1.0000   1.0000   1.0000   1.0000   1.0000

          k =-0.3757 0.5061 0.1326 (  5516 PWs)   bands (ev):

    -6.7754  -6.7475  -5.8917  -5.8793  -3.1881  -3.1608   5.4384   5.6472

     occupation numbers 
     1.0000   1.0000   1.0000   1.0000   1.0000   1.0000   1.0000   1.0000

          k =-0.3757 0.5061-0.1768 (  5510 PWs)   bands (ev):

    -6.7611  -6.7611  -5.8861  -5.8861  -3.1746  -3.1746   5.5507   5.5507

     occupation numbers 
     1.0000   1.0000   1.0000   1.0000   1.0000   1.0000   1.0000   1.0000

     highest occupied level (ev):     5.7585

!    total energy              =     -48.21410789 Ry
     estimated scf accuracy    <          2.2E-11 Ry

     The total energy is the sum of the following terms:
     one-electron contribution =     -13.78783324 Ry
     hartree contribution      =      14.77772665 Ry
     xc contribution           =     -17.16871226 Ry
     ewald contribution        =     -32.01117282 Ry
     DFT-D3 Dispersion         =      -0.02411622 Ry

     convergence has been achieved in  14 iterations

     Forces acting on atoms (cartesian axes, Ry/au):

     atom    1 type  1   force =    -0.00004776    0.00001980   -0.00000000
     atom    2 type  1   force =     0.00004644   -0.00001904    0.00000000
     atom    3 type  1   force =    -0.00003971    0.00003070   -0.00000000
     atom    4 type  1   force =     0.00004103   -0.00003146    0.00000000
     The non-local contrib.  to forces
     atom    1 type  1   force =    -0.00003235    0.00001356   -0.00000000
     atom    2 type  1   force =     0.00003171   -0.00001319    0.00000000
     atom    3 type  1   force =    -0.00002728    0.00002087   -0.00000000
     atom    4 type  1   force =     0.00002792   -0.00002124    0.00000000
     The ionic contribution  to forces
     atom    1 type  1   force =    -0.00018311    0.00008087    0.00000000
     atom    2 type  1   force =     0.00018144   -0.00007991    0.00000000
     atom    3 type  1   force =    -0.00015992    0.00011718   -0.00000000
     atom    4 type  1   force =     0.00016159   -0.00011814   -0.00000000
     The local contribution  to forces
     atom    1 type  1   force =     0.00016455   -0.00007327    0.00000000
     atom    2 type  1   force =    -0.00016360    0.00007272    0.00000000
     atom    3 type  1   force =     0.00014478   -0.00010533   -0.00000000
     atom    4 type  1   force =    -0.00014573    0.00010587   -0.00000000
     The core correction contribution to forces
     atom    1 type  1   force =     0.00000313   -0.00000136    0.00000000
     atom    2 type  1   force =    -0.00000313    0.00000135    0.00000000
     atom    3 type  1   force =     0.00000274   -0.00000203    0.00000000
     atom    4 type  1   force =    -0.00000274    0.00000204    0.00000000
     The Hubbard contrib.    to forces
     atom    1 type  1   force =     0.00000000    0.00000000    0.00000000
     atom    2 type  1   force =     0.00000000    0.00000000    0.00000000
     atom    3 type  1   force =     0.00000000    0.00000000    0.00000000
     atom    4 type  1   force =     0.00000000    0.00000000    0.00000000
     The SCF correction term to forces
     atom    1 type  1   force =     0.00000000    0.00000000    0.00000000
     atom    2 type  1   force =     0.00000000   -0.00000000   -0.00000000
     atom    3 type  1   force =    -0.00000000    0.00000000    0.00000000
     atom    4 type  1   force =    -0.00000000    0.00000000   -0.00000000

     DFT-D3 dispersion contribution to forces:
     atom    1 type  1   force =     0.00000001   -0.00000000   -0.00000000
     atom    2 type  1   force =     0.00000002   -0.00000002   -0.00000000
     atom    3 type  1   force =    -0.00000003    0.00000001    0.00000000
     atom    4 type  1   force =    -0.00000001    0.00000001    0.00000000

     Total force =     0.000102     Total SCF correction =     0.000000

     DFT-D3 dispersion Force =     0.000000


     Computing stress (Cartesian axis) and pressure

          total   stress  (Ry/bohr**3)                   (kbar)     P=       -0.09
  -0.00000088  -0.00000031  -0.00000000           -0.13       -0.05       -0.00
  -0.00000031  -0.00000124  -0.00000000           -0.05       -0.18       -0.00
  -0.00000000  -0.00000000   0.00000020           -0.00       -0.00        0.03

     kinetic stress (kbar)  12826.34      0.02     -0.00
                                0.02  12826.37      0.00
                               -0.00      0.00  14179.35

     local   stress (kbar) -20811.71      0.35      0.00
                                0.35 -20811.30     -0.00
                                0.00     -0.00  24658.19

     nonloc. stress (kbar)  -1304.09      0.01      0.00
                                0.01  -1304.08     -0.00
                                0.00     -0.00  -1100.08

     hartree stress (kbar)   7779.48     -0.05      0.00
                               -0.05   7779.42      0.00
                                0.00      0.00  -6798.45

     exc-cor stress (kbar)  -1018.23     -0.00     -0.00
                               -0.00  -1018.24     -0.00
                               -0.00     -0.00  -1133.43

     corecor stress (kbar)  -1931.80      0.00     -0.00
                                0.00  -1931.79      0.00
                               -0.00      0.00  -1886.05

     ewald   stress (kbar)   4461.59     -0.38      0.00
                               -0.38   4461.15      0.00
                                0.00      0.00 -27899.41

     hubbard stress (kbar)      0.00      0.00      0.00
                                0.00      0.00      0.00
                                0.00      0.00      0.00

     DFT-D   stress (kbar)     -1.70     -0.00     -0.00
                               -0.00     -1.70      0.00
                               -0.00      0.00    -20.08

     XDM     stress (kbar)      0.00      0.00      0.00
                                0.00      0.00      0.00
                                0.00      0.00      0.00

     dft-nl  stress (kbar)      0.00      0.00      0.00
                                0.00      0.00      0.00
                                0.00      0.00      0.00

     TS-vdW  stress (kbar)      0.00      0.00      0.00
                                0.00      0.00      0.00
                                0.00      0.00      0.00


                                0.00      0.00      0.00
                                0.00      0.00      0.00


                                0.00      0.00      0.00


     Writing output data file ./c.save/

     init_run     :     17.46s CPU     17.67s WALL (       2 calls)
     electrons    :   1722.52s CPU   1735.17s WALL (      12 calls)
     update_pot   :     27.58s CPU     27.99s WALL (      10 calls)
     forces       :     60.15s CPU     60.52s WALL (      12 calls)
     force_dftd3  :     29.24s CPU     29.43s WALL (      12 calls)
     stress       :     98.75s CPU     99.19s WALL (      12 calls)
     stres_dftd3  :     29.35s CPU     29.41s WALL (      12 calls)

     Called by init_run:
     wfcinit      :     13.40s CPU     13.55s WALL (       2 calls)
     wfcinit:atom :      0.21s CPU      0.22s WALL (     210 calls)
     wfcinit:wfcr :     12.06s CPU     12.19s WALL (     210 calls)
     potinit      :      2.13s CPU      2.14s WALL (       2 calls)
     hinit0       :      1.80s CPU      1.84s WALL (       2 calls)

     Called by electrons:
     c_bands      :   1471.76s CPU   1482.88s WALL (     160 calls)
     sum_band     :    218.15s CPU    219.44s WALL (     160 calls)
     v_of_rho     :     11.46s CPU     11.60s WALL (     169 calls)
     v_h          :      0.52s CPU      0.53s WALL (     169 calls)
     v_xc         :     12.43s CPU     12.70s WALL (     193 calls)
     mix_rho      :      1.82s CPU      1.86s WALL (     160 calls)
     energy_dftd3 :     19.77s CPU     19.81s WALL (      12 calls)

     Called by c_bands:
     init_us_2    :     42.53s CPU     43.00s WALL (   36330 calls)
     cegterg      :   1415.67s CPU   1426.00s WALL (   16800 calls)

     Called by sum_band:
     sum_band:wei :      0.00s CPU      0.00s WALL (     160 calls)
     sum_band:loo :    216.81s CPU    218.10s WALL (     160 calls)
     sum_band:buf :      3.44s CPU      3.47s WALL (   16800 calls)
     sum_band:ini :     20.39s CPU     20.51s WALL (   16800 calls)

     Called by *egterg:
     cdiaghg      :      4.61s CPU      4.67s WALL (   58389 calls)
     cegterg:over :     51.14s CPU     51.67s WALL (   42954 calls)
     cegterg:upda :     27.15s CPU     27.49s WALL (   42954 calls)
     cegterg:last :     43.87s CPU     44.34s WALL (   36659 calls)
     h_psi        :   1273.73s CPU   1282.85s WALL (   59964 calls)
     g_psi        :      4.51s CPU      4.57s WALL (   42954 calls)

     Called by h_psi:
     h_psi:calbec :    108.98s CPU    109.77s WALL (   59964 calls)
     vloc_psi     :   1079.21s CPU   1086.89s WALL (   59964 calls)
     add_vuspsi   :     79.28s CPU     80.12s WALL (   59964 calls)

     General routines
     calbec       :    120.87s CPU    122.02s WALL (   66264 calls)
     fft          :      4.17s CPU      4.20s WALL (    1991 calls)
     ffts         :      0.34s CPU      0.34s WALL (     160 calls)
     fftw         :   1112.98s CPU   1122.04s WALL (  917676 calls)


     PWSCF        :  32m 6.89s CPU  32m21.03s WALL


   This run was terminated on:  14:44:15  24Oct2021            

=------------------------------------------------------------------------------=
   JOB DONE.
=------------------------------------------------------------------------------=
